                         Program Version 6.0.1  -  RELEASE   -
|  1> ! B3LYP/G OPT FREQ 6-311G* CPCM(Water)
|  2>
|  3> * xyz 1 1
|  4>   C          -3.40756108622994     -0.90361865722193      1.60327904968085
|  5>   C          -3.19821225943522     -1.83450547925237      2.63130763285195
|  6>   C          -1.98466226510484     -1.90503278029824      3.28154346729655
|  7>   C          -2.42333845061049      0.01457824338066      1.29005827237493
|  8>   C          -1.19936757155888      0.05520283726985      2.02076560078017
|  9>   O          -2.47663662531651      0.82991080481411      0.18650462025184
| 10>   C          -0.95351874434225     -1.00431734859382      2.95335943293040
| 11>   C           0.36637010906612     -1.21435297604073      3.47117602782602
| 12>   C           1.41631697273791     -0.48809677896098      3.01715820446006
| 13>   C          -0.13026476082509      0.99254882724486      1.79143553982929
| 14>   C           1.19791804525833      0.63182218427641      2.15219240336710
| 15>   N          -0.30601328269524      2.25591449992496      1.23101647415417
| 16>   C           0.75115215739213      2.94891719720929      0.73652982169074
| 17>   C           2.04961912292405      2.50069068858077      0.86943455955568
| 18>   C           2.27437692682911      1.38777328532069      1.66031277110544
| 19>   C          -3.66975834110415      1.08660527191777     -0.49758130351167
| 20>   O          -4.73064517398802      1.20939228896719      0.08169825894630
| 21>   N          -3.45159397694516      1.21603097188079     -1.81718059439730
| 22>   C          -2.17396222787499      0.99057621070863     -2.49098727148943
| 23>   C          -4.57120212316844      1.56649506535290     -2.68770211853751
| 24>   H          -4.80516752955704      0.73008334512469     -3.35228625741680
| 25>   H          -4.30464507514702      2.43298960410646     -3.29723387928611
| 26>   H          -5.44337410226905      1.80228307161643     -2.08594462349942
| 27>   H          -1.84879795855512      1.91128116947017     -2.98232231904376
| 28>   H          -2.29721676931890      0.21524813756840     -3.25179406677888
| 29>   H          -1.41593267920672      0.67708435076357     -1.78285461473655
| 30>   H          -1.79252803788510     -2.67883785806258      4.01614018529830
| 31>   H          -4.33077234934992     -0.92052607226308      1.04352762220476
| 32>   H          -3.98798120102476     -2.53767540775410      2.87135481733683
| 33>   H           0.51776121813636     -2.02694553656123      4.17303729350299
| 34>   H           2.43349440938564     -0.71351125195105      3.31632344195623
| 35>   H           0.52732087734844      3.90236585548503      0.28061197141739
| 36>   H           2.85849823375027      3.07466885055600      0.43818600731216
| 37>   H           3.28586355945065      1.08212811954001      1.90452655630436
| 38>   P          -1.73381202320118      3.30318539096715      1.61519328834131
| 39>   O          -2.70309582852334      2.61901587635980      2.48690818148456
| 40>   O          -2.08687907563674      3.74954791492584      0.14732659267625
| 41>   O          -1.03999030705843      4.58758159753770      2.23263136542275
| 42>   C          -2.92397434602976      4.93329717080000     -0.15492611910150
| 43>   C          -0.99789854565239      4.90254512424577      3.67386380096243
| 44>   C          -2.73069015476476      5.26467184978821     -1.61416134100989
| 45>   H          -2.60365530348096      5.74629282159323      0.49566130085462
| 46>   H          -3.95362160304776      4.66168812960867      0.07630015793870
| 47>   H          -1.69056145175893      5.52200673086413     -1.82396729864095
| 48>   H          -3.35578044350586      6.12486278445281     -1.86767190132723
| 49>   H          -3.02589557867050      4.42792450822628     -2.24958228924615
| 50>   C           0.31138660817691      4.45965775185088      4.28775150254919
| 51>   H          -1.85911509567056      4.43589900581947      4.15010158515223
| 52>   H          -1.11716961926804      5.98391515523402      3.70318018215518
| 53>   H           0.33813688904558      4.78171371103359      5.33237462925645
| 54>   H           1.16022068903677      4.91113923452996      3.77020919070068
| 55>   H           0.42054612193655      3.37294452409862      4.26606418828361
| 56> *
| 57>
| 58>                          ****END OF INPUT****
 Total Charge           Charge          ....    1
 Multiplicity           Mult            ....    1
 Number of Electrons    NEL             ....  212
FINAL SINGLE POINT ENERGY     -1603.818553936046
                    ***********************HURRAY********************

CARTESIAN COORDINATES (ANGSTROEM)
---------------------------------
  C     -3.407900   -0.903554    1.602826
  C     -3.198713   -1.834487    2.630849
  C     -1.985218   -1.905091    3.281199
  C     -2.423638    0.014653    1.289794
  C     -1.199791    0.055239    2.020673
  O     -2.476647    0.829960    0.186183
  C     -0.954016   -1.004387    2.953156
  C      0.365860   -1.214581    3.470936
  C      1.415879   -0.488397    3.016935
  C     -0.130638    0.992564    1.791501
  C      1.197545    0.631654    2.152117
  N     -0.306317    2.256101    1.231425
  C      0.750901    2.949131    0.737033
  C      2.049336    2.500736    0.869722
  C      2.274039    1.387608    1.660325
  C     -3.669565    1.086419   -0.498385
  O     -4.730702    1.209212    0.080458
  N     -3.450909    1.215659   -1.817905
  C     -2.173068    0.989911   -2.491201
  C     -4.570239    1.566112   -2.688820
  H     -4.804060    0.729660   -3.353398
  H     -4.303409    2.432533   -3.298333
  H     -5.442619    1.801991   -2.087389
  H     -1.847524    1.910473   -2.982544
  H     -2.296190    0.214490   -3.251934
  H     -1.415383    0.676335   -1.782721
  H     -1.793173   -2.678952    4.015763
  H     -4.331006   -0.920438    1.042898
  H     -3.988526   -2.537657    2.870759
  H      0.517195   -2.027248    4.172724
  H      2.433048   -0.713960    3.316015
  H      0.527171    3.902742    0.281404
  H      2.858230    3.074762    0.438573
  H      3.285511    1.081817    1.904410
  P     -1.733878    3.303549    1.616203
  O     -2.702775    2.619701    2.488596
  O     -2.087713    3.749572    0.148420
  O     -1.039543    4.587970    2.232964
  C     -2.924566    4.933506   -0.153726
  C     -0.996802    4.903393    3.674062
  C     -2.732540    5.263940   -1.613344
  H     -2.603294    5.746748    0.496081
  H     -3.954133    4.662537    0.078615
  H     -1.692437    5.520398   -1.824367
  H     -3.357241    6.124462   -1.866678
  H     -3.028988    4.427048   -2.247992
  C      0.312759    4.460657    4.287499
  H     -1.857800    4.436923    4.150864
  H     -1.116045    5.984771    3.703088
  H      0.339985    4.782959    5.332033
  H      1.161385    4.911986    3.769480
  H      0.421854    3.373929    4.266004

 Multiplicity           Mult            ....    1
 Number of Electrons    NEL             ....  212
 Basis Dimension        Dim             ....  584

ORBITAL ENERGIES
----------------

  NO   OCC          E(Eh)            E(eV)
   0   2.0000     -77.225444     -2101.4112
   1   2.0000     -19.187954      -522.1308
   2   2.0000     -19.179437      -521.8990
   3   2.0000     -19.175971      -521.8047
   4   2.0000     -19.118288      -520.2351
   5   2.0000     -19.106045      -519.9019
   6   2.0000     -14.429691      -392.6519
   7   2.0000     -14.360662      -390.7735
   8   2.0000     -10.335377      -281.2399
   9   2.0000     -10.281993      -279.7873
  10   2.0000     -10.272210      -279.5210
  11   2.0000     -10.270416      -279.4722
  12   2.0000     -10.244573      -278.7690
  13   2.0000     -10.242129      -278.7025
  14   2.0000     -10.233842      -278.4770
  15   2.0000     -10.231199      -278.4051
  16   2.0000     -10.224004      -278.2093
  17   2.0000     -10.217177      -278.0235
  18   2.0000     -10.217166      -278.0232
  19   2.0000     -10.201834      -277.6060
  20   2.0000     -10.201115      -277.5864
  21   2.0000     -10.200842      -277.5790
  22   2.0000     -10.199302      -277.5371
  23   2.0000     -10.197291      -277.4824
  24   2.0000     -10.190693      -277.3029
  25   2.0000     -10.189084      -277.2591
  26   2.0000     -10.168343      -276.6947
  27   2.0000     -10.167636      -276.6755
  28   2.0000      -6.706231      -182.4858
  29   2.0000      -4.868593      -132.4811
  30   2.0000      -4.868155      -132.4692
  31   2.0000      -4.866954      -132.4365
  32   2.0000      -1.131880       -30.8000
  33   2.0000      -1.117910       -30.4199
  34   2.0000      -1.061247       -28.8780
  35   2.0000      -1.043891       -28.4057
  36   2.0000      -1.029969       -28.0269
  37   2.0000      -1.007262       -27.4090
  38   2.0000      -0.958074       -26.0705
  39   2.0000      -0.907275       -24.6882
  40   2.0000      -0.871842       -23.7240
  41   2.0000      -0.843860       -22.9626
  42   2.0000      -0.814231       -22.1563
  43   2.0000      -0.791650       -21.5419
  44   2.0000      -0.779978       -21.2243
  45   2.0000      -0.775428       -21.1005
  46   2.0000      -0.765940       -20.8423
  47   2.0000      -0.730085       -19.8666
  48   2.0000      -0.723039       -19.6749
  49   2.0000      -0.702142       -19.1062
  50   2.0000      -0.689318       -18.7573
  51   2.0000      -0.675749       -18.3881
  52   2.0000      -0.662211       -18.0197
  53   2.0000      -0.649741       -17.6803
  54   2.0000      -0.640747       -17.4356
  55   2.0000      -0.606918       -16.5151
  56   2.0000      -0.600220       -16.3328
  57   2.0000      -0.575123       -15.6499
  58   2.0000      -0.559433       -15.2230
  59   2.0000      -0.554256       -15.0821
  60   2.0000      -0.546620       -14.8743
  61   2.0000      -0.544608       -14.8195
  62   2.0000      -0.540883       -14.7182
  63   2.0000      -0.514873       -14.0104
  64   2.0000      -0.511894       -13.9293
  65   2.0000      -0.504620       -13.7314
  66   2.0000      -0.500200       -13.6111
  67   2.0000      -0.496428       -13.5085
  68   2.0000      -0.486903       -13.2493
  69   2.0000      -0.483341       -13.1524
  70   2.0000      -0.474915       -12.9231
  71   2.0000      -0.467756       -12.7283
  72   2.0000      -0.465359       -12.6631
  73   2.0000      -0.457743       -12.4558
  74   2.0000      -0.454343       -12.3633
  75   2.0000      -0.448743       -12.2109
  76   2.0000      -0.441762       -12.0210
  77   2.0000      -0.439270       -11.9531
  78   2.0000      -0.433506       -11.7963
  79   2.0000      -0.425651       -11.5825
  80   2.0000      -0.415238       -11.2992
  81   2.0000      -0.412785       -11.2325
  82   2.0000      -0.410792       -11.1782
  83   2.0000      -0.407013       -11.0754
  84   2.0000      -0.405299       -11.0287
  85   2.0000      -0.402963       -10.9652
  86   2.0000      -0.399809       -10.8793
  87   2.0000      -0.395221       -10.7545
  88   2.0000      -0.390796       -10.6341
  89   2.0000      -0.386944       -10.5293
  90   2.0000      -0.384981       -10.4759
  91   2.0000      -0.377450       -10.2709
  92   2.0000      -0.373530       -10.1643
  93   2.0000      -0.363615        -9.8945
  94   2.0000      -0.361044        -9.8245
  95   2.0000      -0.355485        -9.6732
  96   2.0000      -0.347803        -9.4642
  97   2.0000      -0.343583        -9.3494
  98   2.0000      -0.338957        -9.2235
  99   2.0000      -0.329737        -8.9726
 100   2.0000      -0.326291        -8.8788
 101   2.0000      -0.299803        -8.1581
 102   2.0000      -0.295946        -8.0531
 103   2.0000      -0.270872        -7.3708
 104   2.0000      -0.261354        -7.1118
 105   2.0000      -0.240195        -6.5361
 106   0.0000      -0.117953        -3.2097
 107   0.0000      -0.078877        -2.1463
 108   0.0000      -0.039073        -1.0632
 109   0.0000      -0.013166        -0.3583
 110   0.0000       0.016239         0.4419

MULLIKEN ATOMIC CHARGES
-----------------------
   0 C :   -0.247757
   1 C :   -0.200380
   2 C :   -0.215304
   3 C :    0.265357
   4 C :   -0.018873
   5 O :   -0.402756
   6 C :    0.037572
   7 C :   -0.208126
   8 C :   -0.206249
   9 C :    0.365746
  10 C :   -0.071747
  11 N :   -0.625404
  12 C :    0.074031
  13 C :   -0.290566
  14 C :   -0.031804
  15 C :    0.552204
  16 O :   -0.430255
  17 N :   -0.317879
  18 C :   -0.527133
  19 C :   -0.525802
  20 H :    0.243543
  21 H :    0.241214
  22 H :    0.242288
  23 H :    0.240717
  24 H :    0.240462
  25 H :    0.257522
  26 H :    0.239089
  27 H :    0.256490
  28 H :    0.239752
  29 H :    0.246959
  30 H :    0.249709
  31 H :    0.310066
  32 H :    0.268999
  33 H :    0.274676
  34 P :    1.397583
  35 O :   -0.572760
  36 O :   -0.520949
  37 O :   -0.516659
  38 C :   -0.224538
  39 C :   -0.228444
  40 C :   -0.648681
  41 H :    0.253489
  42 H :    0.253663
  43 H :    0.231000
  44 H :    0.235310
  45 H :    0.252634
  46 C :   -0.642355
  47 H :    0.247804
  48 H :    0.252479
  49 H :    0.236764
  50 H :    0.231183
  51 H :    0.236116
Sum of atomic charges:    1.0000000

LOEWDIN ATOMIC CHARGES
----------------------
   0 C :   -0.129649
   1 C :   -0.073073
   2 C :   -0.103639
   3 C :    0.013623
   4 C :   -0.041360
   5 O :    0.053789
   6 C :   -0.007583
   7 C :   -0.066250
   8 C :   -0.085090
   9 C :    0.042072
  10 C :   -0.026077
  11 N :   -0.015732
  12 C :   -0.017586
  13 C :   -0.102748
  14 C :    0.009990
  15 C :   -0.097332
  16 O :   -0.158487
  17 N :    0.052050
  18 C :   -0.239089
  19 C :   -0.236281
  20 H :    0.118295
  21 H :    0.117315
  22 H :    0.120998
  23 H :    0.116367
  24 H :    0.118607
  25 H :    0.123345
  26 H :    0.131018
  27 H :    0.130620
  28 H :    0.131470
  29 H :    0.136804
  30 H :    0.139071
  31 H :    0.155888
  32 H :    0.152800
  33 H :    0.152114
  34 P :    1.031736
  35 O :   -0.516153
  36 O :   -0.261172
  37 O :   -0.266180
  38 C :   -0.105296
  39 C :   -0.107913
  40 C :   -0.309039
  41 H :    0.121928
  42 H :    0.124117
  43 H :    0.120732
  44 H :    0.130801
  45 H :    0.120327
  46 C :   -0.314097
  47 H :    0.119688
  48 H :    0.125080
  49 H :    0.129992
  50 H :    0.119804
  51 H :    0.119381

  Mayer bond orders larger than 0.100000
B(  0-C ,  1-C ) :   1.3520 B(  0-C ,  3-C ) :   1.4431 B(  0-C , 27-H ) :   0.8920
B(  1-C ,  2-C ) :   1.4944 B(  1-C , 28-H ) :   0.9232 B(  2-C ,  6-C ) :   1.3268
B(  2-C , 26-H ) :   0.9181 B(  3-C ,  4-C ) :   1.2725 B(  3-C ,  5-O ) :   1.0070
B(  4-C ,  6-C ) :   1.3241 B(  4-C ,  9-C ) :   1.2141 B(  5-O , 15-C ) :   0.9587
B(  6-C ,  7-C ) :   1.1997 B(  7-C ,  8-C ) :   1.6532 B(  7-C , 29-H ) :   0.9134
B(  8-C , 10-C ) :   1.1974 B(  8-C , 30-H ) :   0.9144 B(  9-C , 10-C ) :   1.2976
B(  9-C , 11-N ) :   0.9836 B( 10-C , 14-C ) :   1.3095 B( 11-N , 12-C ) :   1.2519
B( 11-N , 34-P ) :   0.6991 B( 12-C , 13-C ) :   1.4653 B( 12-C , 31-H ) :   0.8655
B( 13-C , 14-C ) :   1.4154 B( 13-C , 32-H ) :   0.9078 B( 14-C , 33-H ) :   0.9060
B( 15-C , 16-O ) :   1.8660 B( 15-C , 17-N ) :   1.2542 B( 17-N , 18-C ) :   0.9448
B( 17-N , 19-C ) :   0.9516 B( 18-C , 23-H ) :   0.9129 B( 18-C , 24-H ) :   0.9160
B( 18-C , 25-H ) :   0.9109 B( 19-C , 20-H ) :   0.9176 B( 19-C , 21-H ) :   0.9139
B( 19-C , 22-H ) :   0.9142 B( 34-P , 35-O ) :   1.8959 B( 34-P , 36-O ) :   1.0634
B( 34-P , 37-O ) :   1.0509 B( 36-O , 38-C ) :   0.7994 B( 37-O , 39-C ) :   0.8070
B( 38-C , 40-C ) :   1.0078 B( 38-C , 41-H ) :   0.9094 B( 38-C , 42-H ) :   0.9120
B( 39-C , 46-C ) :   0.9895 B( 39-C , 47-H ) :   0.9122 B( 39-C , 48-H ) :   0.9186
B( 40-C , 43-H ) :   0.9297 B( 40-C , 44-H ) :   0.9223 B( 40-C , 45-H ) :   0.9120
B( 46-C , 49-H ) :   0.9213 B( 46-C , 50-H ) :   0.9274 B( 46-C , 51-H ) :   0.9252

FINAL SINGLE POINT ENERGY     -1603.818553868844

DIPOLE MOMENT
-------------

Method             : SCF
Type of density    : Electron Density
Multiplicity       :   1
Irrep              :   0
Energy             : -1603.8185538688442193 Eh
Relativity type    :
Basis              : AO
                                X                 Y                 Z
Electronic contribution:      3.774365466     -11.328691331      10.092402202
Nuclear contribution   :      0.426295655      12.498168283     -10.985061740
                        -----------------------------------------
Total Dipole Moment    :      4.200661121       1.169476952      -0.892659538
                        -----------------------------------------
Magnitude (a.u.)       :      4.450850621
Magnitude (Debye)      :     11.313163206

VIBRATIONAL FREQUENCIES
-----------------------

Scaling factor for frequencies =  1.000000000  (already applied!)

     0:       0.00 cm**-1
     1:       0.00 cm**-1
     2:       0.00 cm**-1
     3:       0.00 cm**-1
     4:       0.00 cm**-1
     5:       0.00 cm**-1
     6:      24.01 cm**-1
     7:      29.52 cm**-1
     8:      33.40 cm**-1
     9:      38.04 cm**-1
    10:      47.01 cm**-1
    11:      53.55 cm**-1
    12:      56.34 cm**-1
    13:      64.54 cm**-1
    14:      72.98 cm**-1
    15:      74.28 cm**-1
    16:      87.59 cm**-1
    17:      97.01 cm**-1
    18:     104.25 cm**-1
    19:     124.72 cm**-1
    20:     133.81 cm**-1
    21:     152.40 cm**-1
    22:     184.09 cm**-1
    23:     190.62 cm**-1
    24:     207.13 cm**-1
    25:     222.64 cm**-1
    26:     236.11 cm**-1
    27:     249.60 cm**-1
    28:     253.69 cm**-1
    29:     254.48 cm**-1
    30:     266.11 cm**-1
    31:     274.72 cm**-1
    32:     304.18 cm**-1
    33:     309.67 cm**-1
    34:     336.65 cm**-1
    35:     351.99 cm**-1
    36:     381.76 cm**-1
    37:     396.52 cm**-1
    38:     414.48 cm**-1
    39:     433.93 cm**-1
    40:     440.42 cm**-1
    41:     473.66 cm**-1
    42:     482.14 cm**-1
    43:     496.87 cm**-1
    44:     511.28 cm**-1
    45:     517.28 cm**-1
    46:     523.79 cm**-1
    47:     540.53 cm**-1
    48:     559.76 cm**-1
    49:     584.18 cm**-1
    50:     624.53 cm**-1
    51:     628.04 cm**-1
    52:     660.04 cm**-1
    53:     706.56 cm**-1
    54:     719.46 cm**-1
    55:     723.39 cm**-1
    56:     743.33 cm**-1
    57:     759.92 cm**-1
    58:     774.91 cm**-1
    59:     781.44 cm**-1
    60:     787.99 cm**-1
    61:     814.09 cm**-1
    62:     817.17 cm**-1
    63:     820.70 cm**-1
    64:     823.63 cm**-1
    65:     838.67 cm**-1
    66:     848.79 cm**-1
    67:     900.90 cm**-1
    68:     907.47 cm**-1
    69:     947.90 cm**-1
    70:     960.88 cm**-1
    71:     975.92 cm**-1
    72:     982.64 cm**-1
    73:     986.45 cm**-1
    74:     994.84 cm**-1
    75:     998.05 cm**-1
    76:    1015.02 cm**-1
    77:    1018.90 cm**-1
    78:    1030.64 cm**-1
    79:    1061.43 cm**-1
    80:    1081.83 cm**-1
    81:    1113.60 cm**-1
    82:    1113.95 cm**-1
    83:    1123.10 cm**-1
    84:    1131.33 cm**-1
    85:    1133.70 cm**-1
    86:    1137.19 cm**-1
    87:    1152.55 cm**-1
    88:    1175.76 cm**-1
    89:    1179.36 cm**-1
    90:    1181.35 cm**-1
    91:    1186.96 cm**-1
    92:    1201.14 cm**-1
    93:    1214.02 cm**-1
    94:    1238.62 cm**-1
    95:    1258.52 cm**-1
    96:    1273.78 cm**-1
    97:    1283.70 cm**-1
    98:    1289.62 cm**-1
    99:    1298.84 cm**-1
   100:    1319.47 cm**-1
   101:    1324.81 cm**-1
   102:    1347.56 cm**-1
   103:    1358.42 cm**-1
   104:    1407.83 cm**-1
   105:    1409.50 cm**-1
   106:    1414.90 cm**-1
   107:    1421.79 cm**-1
   108:    1423.07 cm**-1
   109:    1426.18 cm**-1
   110:    1449.81 cm**-1
   111:    1454.02 cm**-1
   112:    1459.63 cm**-1
   113:    1471.39 cm**-1
   114:    1478.05 cm**-1
   115:    1483.62 cm**-1
   116:    1487.05 cm**-1
   117:    1491.84 cm**-1
   118:    1491.86 cm**-1
   119:    1495.65 cm**-1
   120:    1500.89 cm**-1
   121:    1504.45 cm**-1
   122:    1516.98 cm**-1
   123:    1519.72 cm**-1
   124:    1526.39 cm**-1
   125:    1536.18 cm**-1
   126:    1555.16 cm**-1
   127:    1598.82 cm**-1
   128:    1618.96 cm**-1
   129:    1640.51 cm**-1
   130:    1658.71 cm**-1
   131:    1760.63 cm**-1
   132:    3038.45 cm**-1
   133:    3041.77 cm**-1
   134:    3043.25 cm**-1
   135:    3048.23 cm**-1
   136:    3087.59 cm**-1
   137:    3089.21 cm**-1
   138:    3095.04 cm**-1
   139:    3096.82 cm**-1
   140:    3108.16 cm**-1
   141:    3113.33 cm**-1
   142:    3113.40 cm**-1
   143:    3120.43 cm**-1
   144:    3150.06 cm**-1
   145:    3157.25 cm**-1
   146:    3179.25 cm**-1
   147:    3187.02 cm**-1
   148:    3191.29 cm**-1
   149:    3197.55 cm**-1
   150:    3201.17 cm**-1
   151:    3203.42 cm**-1
   152:    3206.53 cm**-1
   153:    3233.14 cm**-1
   154:    3242.88 cm**-1
   155:    3252.27 cm**-1

IR SPECTRUM
-----------

 Mode   freq       eps      Int      T**2         TX        TY        TZ
       cm**-1   L/(mol*cm) km/mol    a.u.
----------------------------------------------------------------------------
  6:     24.01   0.000201    1.01  0.002608  ( 0.017815 -0.042444  0.022108)
  7:     29.52   0.000353    1.78  0.003733  ( 0.009899  0.060282 -0.000822)
  8:     33.40   0.000041    0.20  0.000379  ( 0.009525 -0.007250 -0.015344)
  9:     38.04   0.000962    4.86  0.007891  ( 0.059450  0.061401  0.024217)
 10:     47.01   0.000127    0.64  0.000843  ( 0.006913  0.009488 -0.026564)
 11:     53.55   0.000244    1.23  0.001421  (-0.020930  0.025355  0.018438)
 12:     56.34   0.000576    2.91  0.003188  (-0.044788 -0.028011  0.019932)
 13:     64.54   0.000261    1.32  0.001262  ( 0.018342  0.014171 -0.026931)
 14:     72.98   0.000371    1.88  0.001588  ( 0.020769  0.027633 -0.019832)
 15:     74.28   0.000182    0.92  0.000765  (-0.005653 -0.019182 -0.019116)
 16:     87.59   0.001355    6.85  0.004829  (-0.009318  0.067880  0.011610)
 17:     97.01   0.001101    5.56  0.003541  ( 0.022107  0.023057  0.050204)
 18:    104.25   0.000840    4.25  0.002516  (-0.007225 -0.045221 -0.020466)
 19:    124.72   0.000345    1.74  0.000863  ( 0.020137 -0.007841  0.019906)
 20:    133.81   0.000253    1.28  0.000591  ( 0.002360 -0.018554 -0.015528)
 21:    152.40   0.000202    1.02  0.000414  (-0.020247 -0.000996  0.001636)
 22:    184.09   0.000031    0.16  0.000053  ( 0.001049  0.001338  0.007045)
 23:    190.62   0.001702    8.60  0.002786  (-0.023510 -0.008980 -0.046400)
 24:    207.13   0.001010    5.11  0.001522  ( 0.020729  0.001501  0.033016)
 25:    222.64   0.001852    9.36  0.002595  ( 0.013917 -0.045323  0.018645)
 26:    236.11   0.004477   22.62  0.005917  (-0.021730  0.073781  0.001024)
 27:    249.60   0.001028    5.19  0.001285  ( 0.011382  0.022857 -0.025160)
 28:    253.69   0.001130    5.71  0.001390  (-0.016150 -0.033548 -0.001913)
 29:    254.48   0.000702    3.55  0.000861  ( 0.012350 -0.015962  0.021302)
 30:    266.11   0.001101    5.56  0.001291  (-0.012984  0.026439  0.020581)
 31:    274.72   0.002446   12.36  0.002778  ( 0.017931  0.044647  0.021519)
 32:    304.18   0.000372    1.88  0.000382  ( 0.015866  0.007747 -0.008383)
 33:    309.67   0.003330   16.83  0.003356  (-0.044743  0.014439 -0.033847)
 34:    336.65   0.001923    9.72  0.001782  (-0.009099 -0.041068  0.003621)
 35:    351.99   0.010996   55.57  0.009749  (-0.076290 -0.005576 -0.062432)
 36:    381.76   0.001182    5.97  0.000966  (-0.022914 -0.005547 -0.020259)
 37:    396.52   0.002548   12.88  0.002005  ( 0.010300 -0.001887  0.043538)
 38:    414.48   0.002140   10.82  0.001612  (-0.019935 -0.031937  0.013936)
 39:    433.93   0.005851   29.57  0.004207  (-0.021997 -0.047270 -0.038590)
 40:    440.42   0.000801    4.05  0.000567  ( 0.019713 -0.012185  0.005509)
 41:    473.66   0.001996   10.08  0.001315  (-0.020902 -0.001690 -0.029580)
 42:    482.14   0.001292    6.53  0.000836  ( 0.015362 -0.011867  0.021430)
 43:    496.87   0.004957   25.05  0.003113  (-0.009729  0.031860  0.044764)
 44:    511.28   0.003865   19.53  0.002359  ( 0.008059 -0.023500  0.041733)
 45:    517.28   0.014868   75.14  0.008969  ( 0.037071 -0.082157 -0.029078)
 46:    523.79   0.047225  238.66  0.028136  (-0.099065  0.134692  0.013421)
 47:    540.53   0.001711    8.64  0.000988  ( 0.026359 -0.011020  0.013090)
 48:    559.76   0.003726   18.83  0.002077  (-0.044723  0.008753  0.000631)
 49:    584.18   0.003025   15.29  0.001616  (-0.014631  0.028381  0.024425)
 50:    624.53   0.001187    6.00  0.000593  (-0.009164 -0.000308  0.022558)
 51:    628.04   0.008830   44.62  0.004387  (-0.048793  0.008842 -0.043914)
 52:    660.04   0.006824   34.49  0.003226  (-0.008517  0.018819  0.052912)
 53:    706.56   0.010353   52.32  0.004573  ( 0.044134  0.039622  0.032479)
 54:    719.46   0.005872   29.67  0.002547  ( 0.017968 -0.031938 -0.034696)
 55:    723.39   0.009978   50.42  0.004304  (-0.009950 -0.061041  0.021894)
 56:    743.33   0.005281   26.69  0.002217  ( 0.043474 -0.004236  0.017583)
 57:    759.92   0.028733  145.21  0.011799  (-0.025805  0.104999  0.010428)
 58:    774.91   0.006169   31.18  0.002484  (-0.005014  0.027857  0.041027)
 59:    781.44   0.008417   42.54  0.003361  ( 0.028246  0.015077  0.048335)
 60:    787.99   0.012477   63.06  0.004941  ( 0.014320  0.063330  0.026937)
 61:    814.09   0.000228    1.15  0.000088  (-0.007006 -0.000576 -0.006176)
 62:    817.17   0.009801   49.53  0.003743  ( 0.001410  0.035124  0.050073)
 63:    820.70   0.000494    2.50  0.000188  (-0.010930  0.008215  0.001032)
 64:    823.63   0.007359   37.19  0.002788  ( 0.026016  0.017676  0.042413)
 65:    838.67   0.003859   19.50  0.001436  (-0.029412  0.007209 -0.022776)
 66:    848.79   0.017754   89.72  0.006527  (-0.018648  0.047459  0.062667)
 67:    900.90   0.002438   12.32  0.000845  (-0.003978  0.026030  0.012300)
 68:    907.47   0.015435   78.00  0.005308  ( 0.030638 -0.065704  0.007221)
 69:    947.90   0.043352  219.08  0.014272  (-0.019615 -0.092156 -0.073448)
 70:    960.88   0.002501   12.64  0.000812  (-0.017035  0.017169  0.015080)
 71:    975.92   0.101528  513.08  0.032465  (-0.086200  0.058726 -0.146921)
 72:    982.64   0.050012  252.74  0.015883  (-0.077237 -0.002401 -0.099555)
 73:    986.45   0.000174    0.88  0.000055  (-0.002222 -0.002845  0.006493)
 74:    994.84   0.000389    1.97  0.000122  ( 0.002957 -0.009512 -0.004777)
 75:    998.05   0.075401  381.04  0.023576  ( 0.077783 -0.043316  0.125097)
 76:   1015.02   0.000258    1.30  0.000079  (-0.006797  0.000166 -0.005758)
 77:   1018.90   0.046663  235.82  0.014292  (-0.026716  0.108617  0.042194)
 78:   1030.64   0.028650  144.78  0.008675  ( 0.030905 -0.084680 -0.023430)
 79:   1061.43   0.073600  371.94  0.021639  ( 0.105198 -0.055857  0.086325)
 80:   1081.83   0.004538   22.93  0.001309  (-0.030147  0.008450 -0.018131)
 81:   1113.60   0.000358    1.81  0.000100  (-0.000476  0.008812 -0.004723)
 82:   1113.95   0.003704   18.72  0.001038  (-0.019664  0.019612  0.016322)
 83:   1123.10   0.002820   14.25  0.000784  (-0.004811  0.013096  0.024268)
 84:   1131.33   0.068915  348.27  0.019009  (-0.077451  0.018473 -0.112559)
 85:   1133.70   0.005560   28.10  0.001530  (-0.009034  0.017992 -0.033542)
 86:   1137.19   0.158683  801.92  0.043545  (-0.084988  0.063993 -0.179519)
 87:   1152.55   0.003743   18.91  0.001013  ( 0.029436 -0.011623  0.003426)
 88:   1175.76   0.003275   16.55  0.000869  ( 0.026532  0.009694  0.008447)
 89:   1179.36   0.005500   27.80  0.001455  (-0.030414 -0.021746  0.007583)
 90:   1181.35   0.001204    6.08  0.000318  ( 0.002120 -0.011699  0.013291)
 91:   1186.96   0.003752   18.96  0.000986  (-0.010548 -0.027632 -0.010566)
 92:   1201.14   0.005462   27.61  0.001419  (-0.021119  0.006360 -0.030541)
 93:   1214.02   0.008311   42.00  0.002136  ( 0.006922  0.019021 -0.041553)
 94:   1238.62   0.004932   24.92  0.001243  (-0.032225  0.008240 -0.011669)
 95:   1258.52   0.049897  252.16  0.012372  ( 0.079155 -0.036735  0.068974)
 96:   1273.78   0.003624   18.31  0.000888  ( 0.027100 -0.010801  0.006062)
 97:   1283.70   0.045891  231.92  0.011156  ( 0.053021  0.059775 -0.069077)
 98:   1289.62   0.009850   49.78  0.002383  ( 0.044641 -0.014450  0.013482)
 99:   1298.84   0.029610  149.64  0.007114  (-0.037409 -0.068323  0.032353)
100:   1319.47   0.000606    3.06  0.000143  ( 0.002481  0.004642 -0.010749)
101:   1324.81   0.001815    9.17  0.000427  ( 0.010904  0.015187  0.008827)
102:   1347.56   0.001639    8.28  0.000379  (-0.001181  0.015262 -0.012048)
103:   1358.42   0.027430  138.62  0.006301  (-0.072095 -0.002765 -0.033108)
104:   1407.83   0.001173    5.93  0.000260  (-0.004340  0.012347 -0.009414)
105:   1409.50   0.001470    7.43  0.000325  ( 0.004488 -0.013190 -0.011460)
106:   1414.90   0.072884  368.33  0.016075  ( 0.024100  0.086970 -0.089052)
107:   1421.79   0.035312  178.45  0.007751  (-0.063341 -0.015087 -0.059253)
108:   1423.07   0.001678    8.48  0.000368  (-0.002208 -0.013666  0.013281)
109:   1426.18   0.005017   25.36  0.001098  (-0.017391  0.010066 -0.026345)
110:   1449.81   0.005194   26.25  0.001118  (-0.019569 -0.004071  0.026805)
111:   1454.02   0.000433    2.19  0.000093  (-0.006044  0.007480 -0.000659)
112:   1459.63   0.017141   86.63  0.003665  ( 0.006877  0.048092 -0.036120)
113:   1471.39   0.020599  104.10  0.004369  (-0.064837 -0.012543  0.002786)
114:   1478.05   0.011513   58.18  0.002431  (-0.036076 -0.033142 -0.005561)
115:   1483.62   0.003063   15.48  0.000644  ( 0.019138  0.015752  0.005469)
116:   1487.05   0.002583   13.05  0.000542  (-0.009437 -0.019907  0.007529)
117:   1491.84   0.000014    0.07  0.000003  ( 0.000918  0.001376  0.000402)
118:   1491.86   0.000237    1.20  0.000050  (-0.000024  0.000578  0.007019)
119:   1495.65   0.000360    1.82  0.000075  (-0.004347  0.006931 -0.002865)
120:   1500.89   0.005944   30.04  0.001236  (-0.004629  0.034581  0.004322)
121:   1504.45   0.004513   22.81  0.000936  ( 0.027639  0.013015  0.001673)
122:   1516.98   0.001705    8.62  0.000351  (-0.011536  0.009781  0.011044)
123:   1519.72   0.001426    7.21  0.000293  ( 0.009876 -0.005481 -0.012854)
124:   1526.39   0.006171   31.19  0.001262  ( 0.031214  0.012546  0.011398)
125:   1536.18   0.015976   80.74  0.003245  (-0.034757  0.012073 -0.043492)
126:   1555.16   0.013850   69.99  0.002779  ( 0.001292  0.051442 -0.011454)
127:   1598.82   0.037925  191.66  0.007402  (-0.019135  0.072845 -0.041592)
128:   1618.96   0.011385   57.54  0.002195  ( 0.046171  0.007822  0.001280)
129:   1640.51   0.014854   75.07  0.002826  ( 0.027421  0.041252 -0.019288)
130:   1658.71   0.014922   75.41  0.002807  (-0.052225 -0.007834 -0.004301)
131:   1760.63   0.198407  1002.67  0.035167  ( 0.117033 -0.005117 -0.146437)
132:   3038.45   0.005673   28.67  0.000583  ( 0.024107 -0.001214 -0.000043)
133:   3041.77   0.002721   13.75  0.000279  (-0.014001  0.005756 -0.007072)
134:   3043.25   0.018266   92.31  0.001873  ( 0.000377  0.000530 -0.043274)
135:   3048.23   0.004401   22.24  0.000451  (-0.002352 -0.005277  0.020424)
136:   3087.59   0.004346   21.96  0.000439  (-0.014935  0.012607  0.007570)
137:   3089.21   0.014426   72.90  0.001457  ( 0.009582  0.036829  0.003010)
138:   3095.04   0.003672   18.56  0.000370  ( 0.003513  0.018697 -0.002887)
139:   3096.82   0.001377    6.96  0.000139  (-0.009154  0.006994  0.002458)
140:   3108.16   0.009575   48.39  0.000961  ( 0.005208 -0.027068 -0.014198)
141:   3113.33   0.010681   53.98  0.001071  ( 0.025762 -0.004601 -0.019640)
142:   3113.40   0.003306   16.71  0.000331  (-0.013947  0.011396 -0.002641)
143:   3120.43   0.002886   14.59  0.000289  ( 0.001177  0.014701  0.008434)
144:   3150.06   0.009124   46.11  0.000904  (-0.022138 -0.018980 -0.007321)
145:   3157.25   0.005635   28.48  0.000557  ( 0.008289  0.021065 -0.006670)
146:   3179.25   0.001360    6.87  0.000134  (-0.009711  0.002992  0.005502)
147:   3187.02   0.000667    3.37  0.000065  (-0.007742 -0.002260 -0.000486)
148:   3191.29   0.000360    1.82  0.000035  ( 0.004023 -0.001287  0.004173)
149:   3197.55   0.001781    9.00  0.000174  (-0.009181  0.004365 -0.008395)
150:   3201.17   0.004970   25.12  0.000485  (-0.011514 -0.015902  0.009953)
151:   3203.42   0.000271    1.37  0.000026  (-0.003624 -0.002739  0.002394)
152:   3206.53   0.002661   13.45  0.000259  (-0.007548  0.010595 -0.009474)
153:   3233.14   0.000280    1.41  0.000027  (-0.000699  0.004618 -0.002277)
154:   3242.88   0.000027    0.14  0.000003  (-0.000339  0.000137  0.001570)
155:   3252.27   0.002142   10.82  0.000205  ( 0.000104  0.013269 -0.005423)

--------------------------
THERMOCHEMISTRY AT 298.15K
--------------------------

Temperature         ...   298.15 K
Pressure            ...     1.00 atm
Total Mass          ...   403.39 AMU
Quasi RRHO          ...     True
Cut-Off Frequency   ...     1.00 cm^-1

Throughout the following assumptions are being made:
  (1) The electronic state is orbitally nondegenerate
  (2) There are no thermally accessible electronically excited states
  (3) Hindered rotations indicated by low frequency modes are not
      treated as such but are treated as vibrations and this may
      cause some error
  (4) All equations used are the standard statistical mechanics
      equations for an ideal gas
  (5) All vibrations are strictly harmonic

freq.      24.01  E(vib)   ...       0.56
freq.      29.52  E(vib)   ...       0.55
freq.      33.40  E(vib)   ...       0.55
freq.      38.04  E(vib)   ...       0.54
freq.      47.01  E(vib)   ...       0.53
freq.      53.55  E(vib)   ...       0.52
freq.      56.34  E(vib)   ...       0.52
freq.      64.54  E(vib)   ...       0.51
freq.      72.98  E(vib)   ...       0.49
freq.      74.28  E(vib)   ...       0.49
freq.      87.59  E(vib)   ...       0.48
freq.      97.01  E(vib)   ...       0.46
freq.     104.25  E(vib)   ...       0.46
freq.     124.72  E(vib)   ...       0.43
freq.     133.81  E(vib)   ...       0.42
freq.     152.40  E(vib)   ...       0.40
freq.     184.09  E(vib)   ...       0.37
freq.     190.62  E(vib)   ...       0.36
freq.     207.13  E(vib)   ...       0.34
freq.     222.64  E(vib)   ...       0.33
freq.     236.11  E(vib)   ...       0.32
freq.     249.60  E(vib)   ...       0.31
freq.     253.69  E(vib)   ...       0.30
freq.     254.48  E(vib)   ...       0.30
freq.     266.11  E(vib)   ...       0.29
freq.     274.72  E(vib)   ...       0.28
freq.     304.18  E(vib)   ...       0.26
freq.     309.67  E(vib)   ...       0.26
freq.     336.65  E(vib)   ...       0.24
freq.     351.99  E(vib)   ...       0.23
freq.     381.76  E(vib)   ...       0.21
freq.     396.52  E(vib)   ...       0.20
freq.     414.48  E(vib)   ...       0.19
freq.     433.93  E(vib)   ...       0.17
freq.     440.42  E(vib)   ...       0.17
freq.     473.66  E(vib)   ...       0.15
freq.     482.14  E(vib)   ...       0.15
freq.     496.87  E(vib)   ...       0.14
freq.     511.28  E(vib)   ...       0.14
freq.     517.28  E(vib)   ...       0.13
freq.     523.79  E(vib)   ...       0.13
freq.     540.53  E(vib)   ...       0.12
freq.     559.76  E(vib)   ...       0.12
freq.     584.18  E(vib)   ...       0.11
freq.     624.53  E(vib)   ...       0.09
freq.     628.04  E(vib)   ...       0.09
freq.     660.04  E(vib)   ...       0.08
freq.     706.56  E(vib)   ...       0.07
freq.     719.46  E(vib)   ...       0.07
freq.     723.39  E(vib)   ...       0.07
freq.     743.33  E(vib)   ...       0.06
freq.     759.92  E(vib)   ...       0.06
freq.     774.91  E(vib)   ...       0.05
freq.     781.44  E(vib)   ...       0.05
freq.     787.99  E(vib)   ...       0.05
freq.     814.09  E(vib)   ...       0.05
freq.     817.17  E(vib)   ...       0.05
freq.     820.70  E(vib)   ...       0.05
freq.     823.63  E(vib)   ...       0.05
freq.     838.67  E(vib)   ...       0.04
freq.     848.79  E(vib)   ...       0.04
freq.     900.90  E(vib)   ...       0.03
freq.     907.47  E(vib)   ...       0.03
freq.     947.90  E(vib)   ...       0.03
freq.     960.88  E(vib)   ...       0.03
freq.     975.92  E(vib)   ...       0.03
freq.     982.64  E(vib)   ...       0.02
freq.     986.45  E(vib)   ...       0.02
freq.     994.84  E(vib)   ...       0.02
freq.     998.05  E(vib)   ...       0.02
freq.    1015.02  E(vib)   ...       0.02
freq.    1018.90  E(vib)   ...       0.02
freq.    1030.64  E(vib)   ...       0.02
freq.    1061.43  E(vib)   ...       0.02
freq.    1081.83  E(vib)   ...       0.02
freq.    1113.60  E(vib)   ...       0.01
freq.    1113.95  E(vib)   ...       0.01
freq.    1123.10  E(vib)   ...       0.01
freq.    1131.33  E(vib)   ...       0.01
freq.    1133.70  E(vib)   ...       0.01
freq.    1137.19  E(vib)   ...       0.01
freq.    1152.55  E(vib)   ...       0.01
freq.    1175.76  E(vib)   ...       0.01
freq.    1179.36  E(vib)   ...       0.01
freq.    1181.35  E(vib)   ...       0.01
freq.    1186.96  E(vib)   ...       0.01
freq.    1201.14  E(vib)   ...       0.01
freq.    1214.02  E(vib)   ...       0.01
freq.    1238.62  E(vib)   ...       0.01
freq.    1258.52  E(vib)   ...       0.01
freq.    1273.78  E(vib)   ...       0.01
freq.    1283.70  E(vib)   ...       0.01
freq.    1289.62  E(vib)   ...       0.01
freq.    1298.84  E(vib)   ...       0.01
freq.    1319.47  E(vib)   ...       0.01
freq.    1324.81  E(vib)   ...       0.01
freq.    1347.56  E(vib)   ...       0.01
freq.    1358.42  E(vib)   ...       0.01
freq.    1407.83  E(vib)   ...       0.00
freq.    1409.50  E(vib)   ...       0.00
freq.    1414.90  E(vib)   ...       0.00
freq.    1421.79  E(vib)   ...       0.00
freq.    1423.07  E(vib)   ...       0.00
freq.    1426.18  E(vib)   ...       0.00
freq.    1449.81  E(vib)   ...       0.00
freq.    1454.02  E(vib)   ...       0.00
freq.    1459.63  E(vib)   ...       0.00
freq.    1471.39  E(vib)   ...       0.00
freq.    1478.05  E(vib)   ...       0.00
freq.    1483.62  E(vib)   ...       0.00
freq.    1487.05  E(vib)   ...       0.00
freq.    1491.84  E(vib)   ...       0.00
freq.    1491.86  E(vib)   ...       0.00
freq.    1495.65  E(vib)   ...       0.00
freq.    1500.89  E(vib)   ...       0.00
freq.    1504.45  E(vib)   ...       0.00
freq.    1516.98  E(vib)   ...       0.00
freq.    1519.72  E(vib)   ...       0.00
freq.    1526.39  E(vib)   ...       0.00
freq.    1536.18  E(vib)   ...       0.00
freq.    1555.16  E(vib)   ...       0.00
freq.    1598.82  E(vib)   ...       0.00
freq.    1618.96  E(vib)   ...       0.00
freq.    1640.51  E(vib)   ...       0.00
freq.    1658.71  E(vib)   ...       0.00
freq.    1760.63  E(vib)   ...       0.00
freq.    3038.45  E(vib)   ...       0.00
freq.    3041.77  E(vib)   ...       0.00
freq.    3043.25  E(vib)   ...       0.00
freq.    3048.23  E(vib)   ...       0.00
freq.    3087.59  E(vib)   ...       0.00
freq.    3089.21  E(vib)   ...       0.00
freq.    3095.04  E(vib)   ...       0.00
freq.    3096.82  E(vib)   ...       0.00
freq.    3108.16  E(vib)   ...       0.00
freq.    3113.33  E(vib)   ...       0.00
freq.    3113.40  E(vib)   ...       0.00
freq.    3120.43  E(vib)   ...       0.00
freq.    3150.06  E(vib)   ...       0.00
freq.    3157.25  E(vib)   ...       0.00
freq.    3179.25  E(vib)   ...       0.00
freq.    3187.02  E(vib)   ...       0.00

Rotational constants in cm-1:     0.007037     0.006015     0.004308

                             ****ORCA TERMINATED NORMALLY****
TOTAL RUN TIME: 0 days 2 hours 7 minutes 41 seconds 157 msec
