                         Program Version 6.0.1  -  RELEASE   -
|  1> ! B3LYP/G VERYTIGHTOPT FREQ Def2-TZVP(-f) TightSCF CPCM(Water)
|  2> %tddft
|  3>     NRoots 3
|  4>     IRoot 1
|  5> end
|  6>
|  7> * xyz 1 1
|  8>   C     -4.794314    0.324739    0.452676
|  9>   C     -5.400451   -0.529215    1.368949
| 10>   C     -4.615858   -1.113716    2.336225
| 11>   C     -3.424989    0.633801    0.540123
| 12>   C     -2.631283    0.201311    1.625052
| 13>   O     -2.948943    1.345047   -0.512676
| 14>   C     -3.224722   -0.789018    2.460978
| 15>   C     -2.435341   -1.476647    3.396948
| 16>   C     -1.083168   -1.223464    3.476997
| 17>   C     -1.290817    0.611651    1.906199
| 18>   C     -0.480115   -0.174914    2.730098
| 19>   N     -0.734003    1.799462    1.350888
| 20>   C      0.662692    1.837528    1.219208
| 21>   C      1.474874    0.983837    1.915584
| 22>   C      0.925660    0.038180    2.777569
| 23>   C     -1.893675    0.841997   -1.292133
| 24>   O     -1.338851   -0.200374   -1.021824
| 25>   N     -1.641609    1.653386   -2.328747
| 26>   C     -2.451200    2.807876   -2.710621
| 27>   C     -0.624058    1.245995   -3.293469
| 28>   H     -1.094005    0.817195   -4.182200
| 29>   H      0.035828    0.511393   -2.844739
| 30>   H     -0.051342    2.124683   -3.588148
| 31>   H     -1.787448    3.647804   -2.914831
| 32>   H     -3.136550    3.081628   -1.919387
| 33>   H     -3.012046    2.576598   -3.619243
| 34>   H     -5.033244   -1.829598    3.031865
| 35>   H     -5.347129    0.735447   -0.381313
| 36>   H     -6.452953   -0.759446    1.288438
| 37>   H     -2.888388   -2.238212    4.017377
| 38>   H     -0.458642   -1.811566    4.137284
| 39>   H      1.047946    2.624770    0.589909
| 40>   H      2.545563    1.080461    1.799312
| 41>   H      1.540558   -0.573101    3.421013
| 42>   P     -1.499399    3.331994    1.597641
| 43>   O     -2.933259    3.197845    1.893396
| 44>   O     -1.047777    4.042174    0.269124
| 45>   O     -0.652556    4.089628    2.699985
| 46>   C     -1.222621    5.488053    0.068226
| 47>   C     -1.066301    4.194370    4.103143
| 48>   C     -0.190223    5.957113   -0.926959
| 49>   H     -1.107587    5.990262    1.027679
| 50>   H     -2.237714    5.636871   -0.296893
| 51>   H      0.819382    5.799711   -0.545914
| 52>   H     -0.329895    7.025291   -1.103415
| 53>   H     -0.296643    5.435312   -1.878387
| 54>   C     -0.144001    3.387110    4.986039
| 55>   H     -2.101358    3.868800    4.186874
| 56>   H     -1.011345    5.257230    4.331943
| 57>   H      0.890940    3.711242    4.870324
| 58>   H     -0.209076    2.322665    4.758301
| 59>   H     -0.434858    3.533869    6.028382
| 60> *
| 61>
| 62>
| 63>                          ****END OF INPUT****
 Total Charge           Charge          ....    1
 Multiplicity           Mult            ....    1
 Number of Electrons    NEL             ....  212
FINAL SINGLE POINT ENERGY     -1603.917008645102
FINAL SINGLE POINT ENERGY     -1603.917008525685
FINAL SINGLE POINT ENERGY     -1603.917005019326
FINAL SINGLE POINT ENERGY     -1603.917001688856
FINAL SINGLE POINT ENERGY     -1603.917009652464
FINAL SINGLE POINT ENERGY     -1603.917015918458
FINAL SINGLE POINT ENERGY     -1603.917005560218
FINAL SINGLE POINT ENERGY     -1603.916982110796
FINAL SINGLE POINT ENERGY     -1603.917007956587
FINAL SINGLE POINT ENERGY     -1603.917001535723
FINAL SINGLE POINT ENERGY     -1603.917008061149
FINAL SINGLE POINT ENERGY     -1603.917008282186
FINAL SINGLE POINT ENERGY     -1603.917008236068
FINAL SINGLE POINT ENERGY     -1603.917006142538
FINAL SINGLE POINT ENERGY     -1603.917009464419
FINAL SINGLE POINT ENERGY     -1603.917004064312
FINAL SINGLE POINT ENERGY     -1603.917008546196
FINAL SINGLE POINT ENERGY     -1603.917008857434
FINAL SINGLE POINT ENERGY     -1603.917013048969
                    ***********************HURRAY********************

CARTESIAN COORDINATES (ANGSTROEM)
---------------------------------
  C     -4.794164    0.324572    0.452536
  C     -5.400318   -0.529476    1.368699
  C     -4.615764   -1.113941    2.336022
  C     -3.424868    0.633753    0.540116
  C     -2.631204    0.201248    1.625080
  O     -2.948858    1.345147   -0.512607
  C     -3.224669   -0.789144    2.460916
  C     -2.435357   -1.476764    3.396947
  C     -1.083208   -1.223516    3.477153
  C     -1.290752    0.611623    1.906349
  C     -0.480113   -0.174938    2.730327
  N     -0.733872    1.799471    1.351137
  C      0.662851    1.837519    1.219585
  C      1.474959    0.983842    1.916061
  C      0.925649    0.038185    2.777977
  C     -1.893590    0.842277   -1.292181
  O     -1.338440   -0.199909   -1.021851
  N     -1.641921    1.653641   -2.328923
  C     -2.451899    2.807870   -2.710797
  C     -0.624416    1.246436   -3.293769
  H     -1.094389    0.817449   -4.182398
  H      0.035723    0.512034   -2.845082
  H     -0.051964    2.125249   -3.588598
  H     -1.788404    3.647946   -2.915250
  H     -3.137177    3.081544   -1.919468
  H     -3.012859    2.576323   -3.619282
  H     -5.033148   -1.829892    3.031585
  H     -5.346937    0.735282   -0.381481
  H     -6.452791   -0.759797    1.288075
  H     -2.888432   -2.238374    4.017294
  H     -0.458729   -1.811599    4.137501
  H      1.048167    2.624762    0.590320
  H      2.545657    1.080474    1.799914
  H      1.540474   -0.573072    3.421509
  P     -1.499292    3.332017    1.597763
  O     -2.933156    3.197880    1.893501
  O     -1.047641    4.042073    0.269185
  O     -0.652454    4.089697    2.700071
  C     -1.222254    5.487960    0.068172
  C     -1.066265    4.194574    4.103195
  C     -0.189863    5.956726   -0.927160
  H     -1.107057    5.990241    1.027567
  H     -2.237353    5.636916   -0.296873
  H      0.819749    5.799169   -0.546198
  H     -0.329339    7.024911   -1.103725
  H     -0.296483    5.434839   -1.878522
  C     -0.144121    3.387218    4.986171
  H     -2.101370    3.869146    4.186890
  H     -1.011184    5.257438    4.331946
  H      0.890875    3.711181    4.870473
  H     -0.209356    2.322768    4.758483
  H     -0.434989    3.534080    6.028498

 Multiplicity           Mult            ....    1
 Number of Electrons    NEL             ....  212
 Basis Dimension        Dim             ....  822

ORBITAL ENERGIES
----------------

  NO   OCC          E(Eh)            E(eV)
   0   2.0000     -77.217988     -2101.2083
   1   2.0000     -19.189502      -522.1729
   2   2.0000     -19.181518      -521.9556
   3   2.0000     -19.181352      -521.9511
   4   2.0000     -19.117324      -520.2088
   5   2.0000     -19.117105      -520.2029
   6   2.0000     -14.429344      -392.6424
   7   2.0000     -14.365164      -390.8960
   8   2.0000     -10.335463      -281.2422
   9   2.0000     -10.282529      -279.8018
  10   2.0000     -10.278290      -279.6865
  11   2.0000     -10.267824      -279.4017
  12   2.0000     -10.248124      -278.8656
  13   2.0000     -10.242929      -278.7243
  14   2.0000     -10.240204      -278.6501
  15   2.0000     -10.233561      -278.4693
  16   2.0000     -10.224121      -278.2125
  17   2.0000     -10.222025      -278.1554
  18   2.0000     -10.218052      -278.0473
  19   2.0000     -10.204439      -277.6769
  20   2.0000     -10.202782      -277.6318
  21   2.0000     -10.202610      -277.6271
  22   2.0000     -10.201971      -277.6098
  23   2.0000     -10.198115      -277.5048
  24   2.0000     -10.194543      -277.4076
  25   2.0000     -10.194372      -277.4030
  26   2.0000     -10.168821      -276.7077
  27   2.0000     -10.167700      -276.6772
  28   2.0000      -6.685129      -181.9116
  29   2.0000      -4.848040      -131.9219
  30   2.0000      -4.847213      -131.8994
  31   2.0000      -4.845764      -131.8599
  32   2.0000      -1.131569       -30.7916
  33   2.0000      -1.112421       -30.2705
  34   2.0000      -1.056439       -28.7472
  35   2.0000      -1.045605       -28.4524
  36   2.0000      -1.022270       -27.8174
  37   2.0000      -0.995810       -27.0974
  38   2.0000      -0.960316       -26.1315
  39   2.0000      -0.908670       -24.7262
  40   2.0000      -0.872896       -23.7527
  41   2.0000      -0.844832       -22.9890
  42   2.0000      -0.810834       -22.0639
  43   2.0000      -0.788644       -21.4601
  44   2.0000      -0.781463       -21.2647
  45   2.0000      -0.772173       -21.0119
  46   2.0000      -0.763400       -20.7732
  47   2.0000      -0.728967       -19.8362
  48   2.0000      -0.722080       -19.6488
  49   2.0000      -0.708636       -19.2830
  50   2.0000      -0.685078       -18.6419
  51   2.0000      -0.672812       -18.3082
  52   2.0000      -0.657185       -17.8829
  53   2.0000      -0.644408       -17.5352
  54   2.0000      -0.641242       -17.4491
  55   2.0000      -0.608660       -16.5625
  56   2.0000      -0.597820       -16.2675
  57   2.0000      -0.575345       -15.6559
  58   2.0000      -0.562829       -15.3153
  59   2.0000      -0.549278       -14.9466
  60   2.0000      -0.548901       -14.9364
  61   2.0000      -0.544789       -14.8245
  62   2.0000      -0.541445       -14.7335
  63   2.0000      -0.514075       -13.9887
  64   2.0000      -0.513212       -13.9652
  65   2.0000      -0.508673       -13.8417
  66   2.0000      -0.501233       -13.6393
  67   2.0000      -0.495323       -13.4784
  68   2.0000      -0.487174       -13.2567
  69   2.0000      -0.481752       -13.1091
  70   2.0000      -0.472404       -12.8548
  71   2.0000      -0.468621       -12.7518
  72   2.0000      -0.464723       -12.6458
  73   2.0000      -0.456949       -12.4342
  74   2.0000      -0.454658       -12.3719
  75   2.0000      -0.450418       -12.2565
  76   2.0000      -0.441188       -12.0053
  77   2.0000      -0.437991       -11.9183
  78   2.0000      -0.430759       -11.7215
  79   2.0000      -0.422328       -11.4921
  80   2.0000      -0.416190       -11.3251
  81   2.0000      -0.414163       -11.2700
  82   2.0000      -0.410804       -11.1785
  83   2.0000      -0.407415       -11.0863
  84   2.0000      -0.404809       -11.0154
  85   2.0000      -0.403675       -10.9846
  86   2.0000      -0.398496       -10.8436
  87   2.0000      -0.393190       -10.6992
  88   2.0000      -0.388143       -10.5619
  89   2.0000      -0.386040       -10.5047
  90   2.0000      -0.384764       -10.4699
  91   2.0000      -0.377888       -10.2829
  92   2.0000      -0.370631       -10.0854
  93   2.0000      -0.362352        -9.8601
  94   2.0000      -0.355797        -9.6817
  95   2.0000      -0.349317        -9.5054
  96   2.0000      -0.343366        -9.3435
  97   2.0000      -0.340584        -9.2678
  98   2.0000      -0.335311        -9.1243
  99   2.0000      -0.328408        -8.9364
 100   2.0000      -0.320991        -8.7346
 101   2.0000      -0.305379        -8.3098
 102   2.0000      -0.300044        -8.1646
 103   2.0000      -0.275419        -7.4945
 104   2.0000      -0.264330        -7.1928
 105   2.0000      -0.238544        -6.4911
 106   0.0000      -0.140106        -3.8125
 107   0.0000      -0.082822        -2.2537
 108   0.0000      -0.044684        -1.2159
 109   0.0000      -0.017839        -0.4854
 110   0.0000       0.015423         0.4197

----------------------------------------------------------------------------------------------------
                     ABSORPTION SPECTRUM VIA TRANSITION ELECTRIC DIPOLE MOMENTS
----------------------------------------------------------------------------------------------------
     Transition      Energy     Energy  Wavelength fosc(D2)      D2        DX        DY        DZ
                      (eV)      (cm-1)    (nm)                 (au**2)    (au)      (au)      (au)
----------------------------------------------------------------------------------------------------
  0-1A  ->  1-1A    2.141825   17275.0   578.9   0.108651758   2.07059   1.26424  -0.06644   0.68402
  0-1A  ->  2-1A    2.763542   22289.5   448.6   0.007301482   0.10784   0.18525  -0.03313  -0.26912
  0-1A  ->  3-1A    3.043793   24549.8   407.3   0.161638038   2.16756   1.23427   0.79858  -0.08002

MULLIKEN ATOMIC CHARGES
-----------------------
   0 C :   -0.126410
   1 C :   -0.093114
   2 C :   -0.121466
   3 C :    0.362074
   4 C :    0.169688
   5 O :   -0.475110
   6 C :    0.166458
   7 C :   -0.144925
   8 C :   -0.185405
   9 C :   -0.007337
  10 C :    0.329717
  11 N :   -0.304465
  12 C :   -0.054078
  13 C :   -0.020432
  14 C :   -0.289485
  15 C :    0.723527
  16 O :   -0.588897
  17 N :   -0.206594
  18 C :   -0.273697
  19 C :   -0.248799
  20 H :    0.148860
  21 H :    0.152542
  22 H :    0.149049
  23 H :    0.155534
  24 H :    0.161187
  25 H :    0.155195
  26 H :    0.149368
  27 H :    0.153796
  28 H :    0.134452
  29 H :    0.135507
  30 H :    0.139798
  31 H :    0.170641
  32 H :    0.126551
  33 H :    0.134911
  34 P :    1.645793
  35 O :   -0.823741
  36 O :   -0.547795
  37 O :   -0.545735
  38 C :   -0.002644
  39 C :    0.002994
  40 C :   -0.368520
  41 H :    0.136711
  42 H :    0.132020
  43 H :    0.128475
  44 H :    0.138920
  45 H :    0.134966
  46 C :   -0.361796
  47 H :    0.123652
  48 H :    0.132065
  49 H :    0.122271
  50 H :    0.136514
  51 H :    0.137210
Sum of atomic charges:    1.0000000

LOEWDIN ATOMIC CHARGES
----------------------
   0 C :   -0.005636
   1 C :   -0.099325
   2 C :    0.008958
   3 C :   -0.087653
   4 C :   -0.034109
   5 O :    0.215143
   6 C :   -0.050862
   7 C :   -0.037568
   8 C :    0.007452
   9 C :   -0.057223
  10 C :   -0.097542
  11 N :    0.008653
  12 C :   -0.120952
  13 C :   -0.133054
  14 C :   -0.078980
  15 C :   -0.333125
  16 O :   -0.040178
  17 N :    0.105328
  18 C :   -0.209295
  19 C :   -0.201657
  20 H :    0.119076
  21 H :    0.122108
  22 H :    0.121153
  23 H :    0.119487
  24 H :    0.121103
  25 H :    0.119097
  26 H :    0.160928
  27 H :    0.162034
  28 H :    0.154651
  29 H :    0.159374
  30 H :    0.160599
  31 H :    0.144992
  32 H :    0.153065
  33 H :    0.148527
  34 P :    0.754764
  35 O :   -0.440546
  36 O :   -0.107576
  37 O :   -0.114821
  38 C :   -0.228139
  39 C :   -0.229351
  40 C :   -0.275660
  41 H :    0.120815
  42 H :    0.122595
  43 H :    0.115943
  44 H :    0.125340
  45 H :    0.114375
  46 C :   -0.277937
  47 H :    0.117624
  48 H :    0.123018
  49 H :    0.115474
  50 H :    0.115206
  51 H :    0.124308

  Mayer bond orders larger than 0.100000
B(  0-C ,  1-C ) :   1.3090 B(  0-C ,  3-C ) :   1.3100 B(  0-C , 27-H ) :   0.9763
B(  1-C ,  2-C ) :   1.3761 B(  1-C , 28-H ) :   0.9893 B(  2-C ,  6-C ) :   1.1265
B(  2-C , 26-H ) :   0.9766 B(  3-C ,  4-C ) :   1.2161 B(  3-C ,  5-O ) :   0.8623
B(  4-C ,  6-C ) :   1.3176 B(  4-C ,  9-C ) :   1.1548 B(  4-C , 11-N ) :   0.1130
B(  5-O , 15-C ) :   0.9295 B(  6-C ,  7-C ) :   1.2639 B(  7-C ,  8-C ) :   1.3209
B(  7-C , 29-H ) :   0.9949 B(  8-C , 10-C ) :   1.1431 B(  8-C , 30-H ) :   0.9936
B(  9-C , 10-C ) :   1.3671 B(  9-C , 11-N ) :   0.9676 B( 10-C , 14-C ) :   1.1945
B( 11-N , 12-C ) :   1.1156 B( 11-N , 34-P ) :   0.7980 B( 12-C , 13-C ) :   1.5024
B( 12-C , 31-H ) :   0.9499 B( 13-C , 14-C ) :   1.3026 B( 13-C , 32-H ) :   0.9728
B( 14-C , 33-H ) :   0.9745 B( 15-C , 16-O ) :   1.8139 B( 15-C , 17-N ) :   1.3592
B( 17-N , 18-C ) :   0.9366 B( 17-N , 19-C ) :   0.9331 B( 18-C , 23-H ) :   0.9555
B( 18-C , 24-H ) :   0.9575 B( 18-C , 25-H ) :   0.9506 B( 19-C , 20-H ) :   0.9571
B( 19-C , 21-H ) :   0.9602 B( 19-C , 22-H ) :   0.9577 B( 34-P , 35-O ) :   1.6843
B( 34-P , 36-O ) :   1.0441 B( 34-P , 37-O ) :   1.0208 B( 36-O , 38-C ) :   0.8535
B( 37-O , 39-C ) :   0.8706 B( 38-C , 40-C ) :   1.0159 B( 38-C , 41-H ) :   0.9520
B( 38-C , 42-H ) :   0.9638 B( 39-C , 46-C ) :   1.0039 B( 39-C , 47-H ) :   0.9620
B( 39-C , 48-H ) :   0.9597 B( 40-C , 43-H ) :   0.9707 B( 40-C , 44-H ) :   0.9629
B( 40-C , 45-H ) :   0.9717 B( 46-C , 49-H ) :   0.9711 B( 46-C , 50-H ) :   0.9684
B( 46-C , 51-H ) :   0.9613

FINAL SINGLE POINT ENERGY     -1603.917007133492

DIPOLE MOMENT
-------------

Method             : TDA/CIS
Type of density    : Electron Density
Level              : Relaxed density
State              :   1
Multiplicity       :   1
Irrep              :   0
Energy             :     0.0000000000000000 Eh
Relativity type    :
Basis              : AO
                                X                 Y                 Z
Electronic contribution:     -8.908697199     -15.524636781       6.053615844
Nuclear contribution   :      8.465130306      15.075831772      -5.850893191
                        -----------------------------------------
Total Dipole Moment    :     -0.443566893      -0.448805010       0.202722653
                        -----------------------------------------
Magnitude (a.u.)       :      0.662777489
Magnitude (Debye)      :      1.684646495

VIBRATIONAL FREQUENCIES
-----------------------

Scaling factor for frequencies =  1.000000000  (already applied!)

     0:       0.00 cm**-1
     1:       0.00 cm**-1
     2:       0.00 cm**-1
     3:       0.00 cm**-1
     4:       0.00 cm**-1
     5:       0.00 cm**-1
     6:     -27.14 cm**-1  ***imaginary mode***
     7:     -10.11 cm**-1  ***imaginary mode***
     8:      27.92 cm**-1
     9:      30.95 cm**-1
    10:      42.85 cm**-1
    11:      55.21 cm**-1
    12:      57.71 cm**-1
    13:      61.25 cm**-1
    14:      66.41 cm**-1
    15:      78.56 cm**-1
    16:      82.83 cm**-1
    17:      94.84 cm**-1
    18:     105.20 cm**-1
    19:     124.78 cm**-1
    20:     132.04 cm**-1
    21:     146.26 cm**-1
    22:     163.52 cm**-1
    23:     185.36 cm**-1
    24:     189.88 cm**-1
    25:     214.39 cm**-1
    26:     221.59 cm**-1
    27:     240.93 cm**-1
    28:     245.09 cm**-1
    29:     261.31 cm**-1
    30:     275.04 cm**-1
    31:     287.76 cm**-1
    32:     302.16 cm**-1
    33:     325.13 cm**-1
    34:     342.82 cm**-1
    35:     361.42 cm**-1
    36:     369.17 cm**-1
    37:     383.94 cm**-1
    38:     408.88 cm**-1
    39:     426.49 cm**-1
    40:     441.38 cm**-1
    41:     456.36 cm**-1
    42:     464.84 cm**-1
    43:     484.20 cm**-1
    44:     499.34 cm**-1
    45:     513.65 cm**-1
    46:     528.17 cm**-1
    47:     539.48 cm**-1
    48:     553.43 cm**-1
    49:     562.61 cm**-1
    50:     596.63 cm**-1
    51:     623.65 cm**-1
    52:     636.79 cm**-1
    53:     678.24 cm**-1
    54:     707.76 cm**-1
    55:     720.01 cm**-1
    56:     728.33 cm**-1
    57:     734.44 cm**-1
    58:     761.47 cm**-1
    59:     766.72 cm**-1
    60:     793.40 cm**-1
    61:     796.32 cm**-1
    62:     802.68 cm**-1
    63:     813.36 cm**-1
    64:     816.17 cm**-1
    65:     828.10 cm**-1
    66:     849.87 cm**-1
    67:     860.07 cm**-1
    68:     917.60 cm**-1
    69:     942.62 cm**-1
    70:     950.13 cm**-1
    71:     952.79 cm**-1
    72:     959.02 cm**-1
    73:     976.92 cm**-1
    74:     981.47 cm**-1
    75:     986.88 cm**-1
    76:     998.00 cm**-1
    77:    1004.44 cm**-1
    78:    1030.78 cm**-1
    79:    1051.58 cm**-1
    80:    1074.13 cm**-1
    81:    1085.36 cm**-1
    82:    1097.53 cm**-1
    83:    1107.44 cm**-1
    84:    1112.93 cm**-1
    85:    1116.52 cm**-1
    86:    1121.63 cm**-1
    87:    1122.93 cm**-1
    88:    1160.07 cm**-1
    89:    1170.56 cm**-1
    90:    1175.69 cm**-1
    91:    1181.02 cm**-1
    92:    1187.77 cm**-1
    93:    1197.08 cm**-1
    94:    1206.82 cm**-1
    95:    1243.69 cm**-1
    96:    1247.00 cm**-1
    97:    1268.13 cm**-1
    98:    1269.94 cm**-1
    99:    1281.13 cm**-1
   100:    1315.13 cm**-1
   101:    1318.41 cm**-1
   102:    1340.51 cm**-1
   103:    1367.43 cm**-1
   104:    1380.08 cm**-1
   105:    1393.98 cm**-1
   106:    1399.38 cm**-1
   107:    1401.66 cm**-1
   108:    1411.65 cm**-1
   109:    1416.82 cm**-1
   110:    1418.42 cm**-1
   111:    1441.36 cm**-1
   112:    1443.16 cm**-1
   113:    1455.82 cm**-1
   114:    1461.50 cm**-1
   115:    1469.44 cm**-1
   116:    1470.92 cm**-1
   117:    1474.25 cm**-1
   118:    1480.54 cm**-1
   119:    1480.66 cm**-1
   120:    1483.24 cm**-1
   121:    1488.04 cm**-1
   122:    1494.26 cm**-1
   123:    1506.82 cm**-1
   124:    1510.30 cm**-1
   125:    1514.39 cm**-1
   126:    1532.03 cm**-1
   127:    1550.97 cm**-1
   128:    1572.21 cm**-1
   129:    1590.83 cm**-1
   130:    1603.09 cm**-1
   131:    1725.18 cm**-1
   132:    3035.97 cm**-1
   133:    3036.96 cm**-1
   134:    3040.42 cm**-1
   135:    3041.86 cm**-1
   136:    3069.40 cm**-1
   137:    3074.21 cm**-1
   138:    3103.12 cm**-1
   139:    3104.72 cm**-1
   140:    3105.11 cm**-1
   141:    3108.84 cm**-1
   142:    3110.10 cm**-1
   143:    3114.00 cm**-1
   144:    3133.39 cm**-1
   145:    3134.25 cm**-1
   146:    3175.71 cm**-1
   147:    3197.49 cm**-1
   148:    3201.00 cm**-1
   149:    3204.91 cm**-1
   150:    3210.63 cm**-1
   151:    3215.57 cm**-1
   152:    3222.39 cm**-1
   153:    3230.09 cm**-1
   154:    3231.51 cm**-1
   155:    3252.14 cm**-1

IR SPECTRUM
-----------

 Mode   freq       eps      Int      T**2         TX        TY        TZ
       cm**-1   L/(mol*cm) km/mol    a.u.
----------------------------------------------------------------------------
  8:     27.92   0.000328    1.66  0.003668  (-0.038694 -0.032298 -0.033579)
  9:     30.95   0.000018    0.09  0.000180  (-0.005731  0.005775  0.010690)
 10:     42.85   0.000683    3.45  0.004975  ( 0.056206  0.019443 -0.037912)
 11:     55.21   0.000423    2.14  0.002393  (-0.023679 -0.020424  0.037624)
 12:     57.71   0.000564    2.85  0.003052  (-0.052942  0.007396  0.013960)
 13:     61.25   0.000544    2.75  0.002770  ( 0.026279  0.036854  0.026857)
 14:     66.41   0.000232    1.17  0.001091  ( 0.004417  0.010875 -0.030880)
 15:     78.56   0.000343    1.73  0.001363  ( 0.032461 -0.014543  0.009904)
 16:     82.83   0.001286    6.50  0.004846  ( 0.025278  0.061912  0.019348)
 17:     94.84   0.001984   10.02  0.006528  ( 0.019213  0.050045  0.060447)
 18:    105.20   0.000445    2.25  0.001319  ( 0.013505  0.011760  0.031601)
 19:    124.78   0.000227    1.15  0.000567  ( 0.002199 -0.011326  0.020826)
 20:    132.04   0.001844    9.32  0.004359  ( 0.009118  0.010689  0.064510)
 21:    146.26   0.000246    1.24  0.000524  (-0.022803 -0.000744 -0.001887)
 22:    163.52   0.000045    0.23  0.000086  ( 0.008099 -0.004111  0.001850)
 23:    185.36   0.001397    7.06  0.002352  (-0.008416 -0.010850 -0.046513)
 24:    189.88   0.000240    1.22  0.000395  ( 0.016960  0.009516  0.004120)
 25:    214.39   0.002957   14.94  0.004304  (-0.000108 -0.065060  0.008448)
 26:    221.59   0.000389    1.96  0.000547  (-0.019716  0.004738  0.011674)
 27:    240.93   0.000685    3.46  0.000887  ( 0.022784  0.017988 -0.006634)
 28:    245.09   0.001026    5.18  0.001306  ( 0.006018  0.027752 -0.022359)
 29:    261.31   0.001291    6.53  0.001542  ( 0.031377  0.022825 -0.006044)
 30:    275.04   0.004373   22.10  0.004961  (-0.020634 -0.059288 -0.031946)
 31:    287.76   0.001214    6.14  0.001317  ( 0.025251 -0.025953 -0.002321)
 32:    302.16   0.001299    6.57  0.001342  (-0.013205  0.021534 -0.026530)
 33:    325.13   0.000773    3.91  0.000742  (-0.007862  0.025062 -0.007242)
 34:    342.82   0.001998   10.09  0.001818  ( 0.022124  0.026634 -0.024890)
 35:    361.42   0.008026   40.56  0.006930  (-0.014456  0.007711 -0.081618)
 36:    369.17   0.002058   10.40  0.001740  (-0.035646  0.015264  0.015359)
 37:    383.94   0.001598    8.08  0.001299  ( 0.017420 -0.021112  0.023445)
 38:    408.88   0.002706   13.68  0.002065  (-0.037599 -0.022712  0.011654)
 39:    426.49   0.001521    7.69  0.001113  ( 0.013344 -0.012624  0.027848)
 40:    441.38   0.003422   17.30  0.002420  (-0.024709 -0.015470 -0.039621)
 41:    456.36   0.002948   14.90  0.002016  (-0.025900  0.034122  0.013439)
 42:    464.84   0.001206    6.09  0.000809  (-0.011594  0.007999  0.024718)
 43:    484.20   0.001934    9.77  0.001246  (-0.015097  0.008999  0.030618)
 44:    499.34   0.002926   14.79  0.001829  ( 0.023391 -0.004885 -0.035462)
 45:    513.65   0.005806   29.34  0.003528  ( 0.022223 -0.008620  0.054400)
 46:    528.17   0.034474  174.22  0.020368  (-0.001539  0.142671  0.003333)
 47:    539.48   0.003520   17.79  0.002036  ( 0.013660 -0.039918  0.016004)
 48:    553.43   0.004786   24.19  0.002699  (-0.005805 -0.044747 -0.025742)
 49:    562.61   0.012912   65.25  0.007162  (-0.015669  0.080492  0.020915)
 50:    596.63   0.008724   44.09  0.004563  (-0.036582  0.041315 -0.038956)
 51:    623.65   0.008478   42.84  0.004242  ( 0.050431 -0.039926  0.010234)
 52:    636.79   0.005472   27.66  0.002682  ( 0.042314  0.028347 -0.009366)
 53:    678.24   0.032141  162.43  0.014788  (-0.028955 -0.079071 -0.087735)
 54:    707.76   0.004276   21.61  0.001886  ( 0.018272  0.033766 -0.020286)
 55:    720.01   0.001367    6.91  0.000593  (-0.020910 -0.010431  0.006827)
 56:    728.33   0.005026   25.40  0.002153  ( 0.045684 -0.002586 -0.007729)
 57:    734.44   0.008596   43.44  0.003653  ( 0.045433  0.038304  0.011007)
 58:    761.47   0.033843  171.03  0.013869  ( 0.005633 -0.117005 -0.012150)
 59:    766.72   0.000142    0.72  0.000058  ( 0.006577 -0.001585 -0.003464)
 60:    793.40   0.018865   95.34  0.007420  ( 0.016384  0.030446  0.078897)
 61:    796.32   0.017063   86.23  0.006687  ( 0.036622  0.062802 -0.037436)
 62:    802.68   0.001755    8.87  0.000682  (-0.005765 -0.024698 -0.006263)
 63:    813.36   0.000477    2.41  0.000183  (-0.002328  0.007440  0.011057)
 64:    816.17   0.001271    6.42  0.000486  ( 0.001803 -0.021933 -0.001297)
 65:    828.10   0.001732    8.75  0.000653  (-0.007380  0.002965 -0.024281)
 66:    849.87   0.002443   12.35  0.000897  ( 0.014802  0.000192 -0.026039)
 67:    860.07   0.024308  122.84  0.008820  ( 0.025457 -0.048466 -0.076307)
 68:    917.60   0.024790  125.28  0.008431  (-0.000677 -0.088861  0.023107)
 69:    942.62   0.001160    5.86  0.000384  (-0.017970  0.007739  0.001143)
 70:    950.13   0.030515  154.21  0.010022  (-0.013205  0.063042  0.076641)
 71:    952.79   0.034212  172.89  0.011205  (-0.009523 -0.052599 -0.091367)
 72:    959.02   0.040286  203.59  0.013109  (-0.073865  0.015567  0.086085)
 73:    976.92   0.132454  669.37  0.042311  (-0.000452 -0.107349  0.175461)
 74:    981.47   0.001476    7.46  0.000469  (-0.003215  0.020909 -0.004659)
 75:    986.88   0.001597    8.07  0.000505  (-0.007801 -0.020578  0.004558)
 76:    998.00   0.029368  148.42  0.009183  ( 0.020498  0.077975 -0.051797)
 77:   1004.44   0.075210  380.08  0.023366  ( 0.002304 -0.062840  0.139328)
 78:   1030.78   0.071739  362.54  0.021719  ( 0.015237  0.142964  0.032368)
 79:   1051.58   0.046196  233.46  0.013709  ( 0.025260  0.049949 -0.102840)
 80:   1074.13   0.006007   30.36  0.001745  ( 0.029613 -0.020255 -0.021399)
 81:   1085.36   0.011669   58.97  0.003355  ( 0.023694  0.000180 -0.052854)
 82:   1097.53   0.160004  808.60  0.045495  ( 0.086903  0.058590 -0.185768)
 83:   1107.44   0.002742   13.86  0.000773  (-0.012148  0.024992  0.000709)
 84:   1112.93   0.005711   28.86  0.001601  ( 0.014750  0.027208 -0.025367)
 85:   1116.52   0.001671    8.44  0.000467  (-0.009459  0.011901  0.015358)
 86:   1121.63   0.009848   49.77  0.002740  ( 0.051206 -0.010042  0.004121)
 87:   1122.93   0.000300    1.52  0.000083  ( 0.007130  0.000451  0.005689)
 88:   1160.07   0.004618   23.34  0.001242  (-0.020982 -0.028306 -0.000824)
 89:   1170.56   0.001666    8.42  0.000444  ( 0.006306  0.015930 -0.012272)
 90:   1175.69   0.003880   19.61  0.001030  (-0.018104  0.008716 -0.025023)
 91:   1181.02   0.004033   20.38  0.001066  ( 0.009834  0.018294  0.025186)
 92:   1187.77   0.001954    9.88  0.000513  ( 0.009822 -0.020403  0.000861)
 93:   1197.08   0.008882   44.88  0.002315  ( 0.032126 -0.025306 -0.025355)
 94:   1206.82   0.009920   50.13  0.002565  ( 0.032704 -0.004138  0.038450)
 95:   1243.69   0.016504   83.40  0.004141  (-0.023285 -0.034805  0.048861)
 96:   1247.00   0.015873   80.22  0.003972  (-0.050316 -0.000184  0.037954)
 97:   1268.13   0.044248  223.61  0.010889  ( 0.100513  0.020986 -0.018584)
 98:   1269.94   0.020575  103.98  0.005056  (-0.061376 -0.032243  0.015786)
 99:   1281.13   0.009814   49.60  0.002391  ( 0.028347 -0.026033  0.030154)
100:   1315.13   0.000875    4.42  0.000208  ( 0.010613  0.004179 -0.008811)
101:   1318.41   0.001453    7.34  0.000344  (-0.008534 -0.009874 -0.013175)
102:   1340.51   0.007468   37.74  0.001739  (-0.014865 -0.003219 -0.038823)
103:   1367.43   0.083153  420.22  0.018976  ( 0.122973  0.061002  0.011529)
104:   1380.08   0.015182   76.72  0.003433  ( 0.036073 -0.006524  0.045706)
105:   1393.98   0.027332  138.13  0.006119  ( 0.034303  0.026940 -0.064933)
106:   1399.38   0.000924    4.67  0.000206  (-0.011268  0.005887  0.006672)
107:   1401.66   0.000683    3.45  0.000152  ( 0.005798 -0.009590  0.005150)
108:   1411.65   0.004313   21.79  0.000953  ( 0.017274  0.000773  0.025581)
109:   1416.82   0.039365  198.94  0.008670  ( 0.065576  0.059287 -0.029246)
110:   1418.42   0.001176    5.94  0.000259  ( 0.010774 -0.008127  0.008756)
111:   1441.36   0.015048   76.05  0.003258  (-0.037477 -0.030220  0.030663)
112:   1443.16   0.006695   33.83  0.001448  (-0.004226 -0.028371  0.024997)
113:   1455.82   0.002642   13.35  0.000566  ( 0.011432  0.018025  0.010522)
114:   1461.50   0.011267   56.94  0.002406  (-0.028547  0.020593 -0.034157)
115:   1469.44   0.002048   10.35  0.000435  (-0.011784 -0.017174  0.001095)
116:   1470.92   0.002100   10.61  0.000446  ( 0.015058  0.004232  0.014173)
117:   1474.25   0.000177    0.90  0.000038  ( 0.004454 -0.003702 -0.002003)
118:   1480.54   0.000398    2.01  0.000084  (-0.002309 -0.000367  0.008861)
119:   1480.66   0.004148   20.96  0.000874  (-0.027721 -0.010166  0.001532)
120:   1483.24   0.000333    1.68  0.000070  (-0.007707  0.000094 -0.003248)
121:   1488.04   0.005964   30.14  0.001251  (-0.007138 -0.033099 -0.010206)
122:   1494.26   0.002400   12.13  0.000501  (-0.003913 -0.019220 -0.010789)
123:   1506.82   0.001206    6.09  0.000250  ( 0.011411 -0.008304 -0.007114)
124:   1510.30   0.001385    7.00  0.000286  (-0.012433  0.008570  0.007632)
125:   1514.39   0.012598   63.67  0.002596  ( 0.007367 -0.003414 -0.050300)
126:   1532.03   0.016890   85.35  0.003440  ( 0.053965  0.002569  0.022836)
127:   1550.97   0.001728    8.73  0.000348  (-0.012636 -0.013598 -0.001778)
128:   1572.21   0.020381  103.00  0.004045  ( 0.048592 -0.027169  0.030758)
129:   1590.83   0.035620  180.01  0.006987  ( 0.023572  0.075533 -0.026951)
130:   1603.09   0.006290   31.78  0.001224  (-0.029492 -0.018632 -0.002730)
131:   1725.18   0.175263  885.71  0.031703  (-0.052967  0.146709 -0.085872)
132:   3035.97   0.002364   11.95  0.000243  (-0.008895  0.006487 -0.011037)
133:   3036.96   0.007018   35.46  0.000721  ( 0.015631 -0.013397 -0.017242)
134:   3040.42   0.003221   16.28  0.000331  ( 0.013461 -0.003444  0.011726)
135:   3041.86   0.017922   90.57  0.001839  ( 0.002137 -0.016501  0.039519)
136:   3069.40   0.005193   26.24  0.000528  ( 0.014018 -0.017653 -0.004453)
137:   3074.21   0.003783   19.12  0.000384  (-0.009247  0.014373  0.009590)
138:   3103.12   0.007828   39.56  0.000787  ( 0.018919  0.020265  0.004317)
139:   3104.72   0.004092   20.68  0.000411  (-0.017148  0.001665  0.010701)
140:   3105.11   0.004620   23.35  0.000464  ( 0.011912  0.017278  0.004892)
141:   3108.84   0.000672    3.39  0.000067  ( 0.002996 -0.006939  0.003206)
142:   3110.10   0.003984   20.13  0.000400  (-0.005242  0.015089  0.012025)
143:   3114.00   0.004703   23.77  0.000471  ( 0.013420 -0.016361 -0.004851)
144:   3133.39   0.008935   45.15  0.000890  ( 0.019938  0.008422  0.020527)
145:   3134.25   0.004574   23.11  0.000455  (-0.009402 -0.018816  0.003596)
146:   3175.71   0.000926    4.68  0.000091  (-0.005829  0.006592 -0.003676)
147:   3197.49   0.000654    3.30  0.000064  (-0.004419  0.002570  0.006137)
148:   3201.00   0.000224    1.13  0.000022  (-0.003444 -0.002919  0.001193)
149:   3204.91   0.000143    0.72  0.000014  (-0.000048 -0.003656  0.000749)
150:   3210.63   0.000624    3.15  0.000061  ( 0.000192  0.005411 -0.005596)
151:   3215.57   0.000137    0.69  0.000013  ( 0.001346 -0.002771  0.001948)
152:   3222.39   0.001597    8.07  0.000155  (-0.006764 -0.007608  0.007145)
153:   3230.09   0.000172    0.87  0.000017  ( 0.000355 -0.003321  0.002328)
154:   3231.51   0.002197   11.10  0.000212  ( 0.014229 -0.000021  0.003108)
155:   3252.14   0.005905   29.84  0.000567  (-0.014216 -0.016090  0.010276)

--------------------------
THERMOCHEMISTRY AT 298.15K
--------------------------

Temperature         ...   298.15 K
Pressure            ...     1.00 atm
Total Mass          ...   403.39 AMU
Quasi RRHO          ...     True
Cut-Off Frequency   ...     1.00 cm^-1

Throughout the following assumptions are being made:
  (1) The electronic state is orbitally nondegenerate
  (2) There are no thermally accessible electronically excited states
  (3) Hindered rotations indicated by low frequency modes are not
      treated as such but are treated as vibrations and this may
      cause some error
  (4) All equations used are the standard statistical mechanics
      equations for an ideal gas
  (5) All vibrations are strictly harmonic

freq.      27.92  E(vib)   ...       0.55
freq.      30.95  E(vib)   ...       0.55
freq.      42.85  E(vib)   ...       0.53
freq.      55.21  E(vib)   ...       0.52
freq.      57.71  E(vib)   ...       0.51
freq.      61.25  E(vib)   ...       0.51
freq.      66.41  E(vib)   ...       0.50
freq.      78.56  E(vib)   ...       0.49
freq.      82.83  E(vib)   ...       0.48
freq.      94.84  E(vib)   ...       0.47
freq.     105.20  E(vib)   ...       0.45
freq.     124.78  E(vib)   ...       0.43
freq.     132.04  E(vib)   ...       0.42
freq.     146.26  E(vib)   ...       0.41
freq.     163.52  E(vib)   ...       0.39
freq.     185.36  E(vib)   ...       0.37
freq.     189.88  E(vib)   ...       0.36
freq.     214.39  E(vib)   ...       0.34
freq.     221.59  E(vib)   ...       0.33
freq.     240.93  E(vib)   ...       0.31
freq.     245.09  E(vib)   ...       0.31
freq.     261.31  E(vib)   ...       0.30
freq.     275.04  E(vib)   ...       0.28
freq.     287.76  E(vib)   ...       0.27
freq.     302.16  E(vib)   ...       0.26
freq.     325.13  E(vib)   ...       0.24
freq.     342.82  E(vib)   ...       0.23
freq.     361.42  E(vib)   ...       0.22
freq.     369.17  E(vib)   ...       0.21
freq.     383.94  E(vib)   ...       0.20
freq.     408.88  E(vib)   ...       0.19
freq.     426.49  E(vib)   ...       0.18
freq.     441.38  E(vib)   ...       0.17
freq.     456.36  E(vib)   ...       0.16
freq.     464.84  E(vib)   ...       0.16
freq.     484.20  E(vib)   ...       0.15
freq.     499.34  E(vib)   ...       0.14
freq.     513.65  E(vib)   ...       0.13
freq.     528.17  E(vib)   ...       0.13
freq.     539.48  E(vib)   ...       0.12
freq.     553.43  E(vib)   ...       0.12
freq.     562.61  E(vib)   ...       0.11
freq.     596.63  E(vib)   ...       0.10
freq.     623.65  E(vib)   ...       0.09
freq.     636.79  E(vib)   ...       0.09
freq.     678.24  E(vib)   ...       0.08
freq.     707.76  E(vib)   ...       0.07
freq.     720.01  E(vib)   ...       0.07
freq.     728.33  E(vib)   ...       0.06
freq.     734.44  E(vib)   ...       0.06
freq.     761.47  E(vib)   ...       0.06
freq.     766.72  E(vib)   ...       0.06
freq.     793.40  E(vib)   ...       0.05
freq.     796.32  E(vib)   ...       0.05
freq.     802.68  E(vib)   ...       0.05
freq.     813.36  E(vib)   ...       0.05
freq.     816.17  E(vib)   ...       0.05
freq.     828.10  E(vib)   ...       0.04
freq.     849.87  E(vib)   ...       0.04
freq.     860.07  E(vib)   ...       0.04
freq.     917.60  E(vib)   ...       0.03
freq.     942.62  E(vib)   ...       0.03
freq.     950.13  E(vib)   ...       0.03
freq.     952.79  E(vib)   ...       0.03
freq.     959.02  E(vib)   ...       0.03
freq.     976.92  E(vib)   ...       0.03
freq.     981.47  E(vib)   ...       0.02
freq.     986.88  E(vib)   ...       0.02
freq.     998.00  E(vib)   ...       0.02
freq.    1004.44  E(vib)   ...       0.02
freq.    1030.78  E(vib)   ...       0.02
freq.    1051.58  E(vib)   ...       0.02
freq.    1074.13  E(vib)   ...       0.02
freq.    1085.36  E(vib)   ...       0.02
freq.    1097.53  E(vib)   ...       0.02
freq.    1107.44  E(vib)   ...       0.02
freq.    1112.93  E(vib)   ...       0.01
freq.    1116.52  E(vib)   ...       0.01
freq.    1121.63  E(vib)   ...       0.01
freq.    1122.93  E(vib)   ...       0.01
freq.    1160.07  E(vib)   ...       0.01
freq.    1170.56  E(vib)   ...       0.01
freq.    1175.69  E(vib)   ...       0.01
freq.    1181.02  E(vib)   ...       0.01
freq.    1187.77  E(vib)   ...       0.01
freq.    1197.08  E(vib)   ...       0.01
freq.    1206.82  E(vib)   ...       0.01
freq.    1243.69  E(vib)   ...       0.01
freq.    1247.00  E(vib)   ...       0.01
freq.    1268.13  E(vib)   ...       0.01
freq.    1269.94  E(vib)   ...       0.01
freq.    1281.13  E(vib)   ...       0.01
freq.    1315.13  E(vib)   ...       0.01
freq.    1318.41  E(vib)   ...       0.01
freq.    1340.51  E(vib)   ...       0.01
freq.    1367.43  E(vib)   ...       0.01
freq.    1380.08  E(vib)   ...       0.01
freq.    1393.98  E(vib)   ...       0.00
freq.    1399.38  E(vib)   ...       0.00
freq.    1401.66  E(vib)   ...       0.00
freq.    1411.65  E(vib)   ...       0.00
freq.    1416.82  E(vib)   ...       0.00
freq.    1418.42  E(vib)   ...       0.00
freq.    1441.36  E(vib)   ...       0.00
freq.    1443.16  E(vib)   ...       0.00
freq.    1455.82  E(vib)   ...       0.00
freq.    1461.50  E(vib)   ...       0.00
freq.    1469.44  E(vib)   ...       0.00
freq.    1470.92  E(vib)   ...       0.00
freq.    1474.25  E(vib)   ...       0.00
freq.    1480.54  E(vib)   ...       0.00
freq.    1480.66  E(vib)   ...       0.00
freq.    1483.24  E(vib)   ...       0.00
freq.    1488.04  E(vib)   ...       0.00
freq.    1494.26  E(vib)   ...       0.00
freq.    1506.82  E(vib)   ...       0.00
freq.    1510.30  E(vib)   ...       0.00
freq.    1514.39  E(vib)   ...       0.00
freq.    1532.03  E(vib)   ...       0.00
freq.    1550.97  E(vib)   ...       0.00
freq.    1572.21  E(vib)   ...       0.00
freq.    1590.83  E(vib)   ...       0.00
freq.    1603.09  E(vib)   ...       0.00
freq.    1725.18  E(vib)   ...       0.00
freq.    3035.97  E(vib)   ...       0.00
freq.    3036.96  E(vib)   ...       0.00
freq.    3040.42  E(vib)   ...       0.00
freq.    3041.86  E(vib)   ...       0.00
freq.    3069.40  E(vib)   ...       0.00
freq.    3074.21  E(vib)   ...       0.00
freq.    3103.12  E(vib)   ...       0.00
freq.    3104.72  E(vib)   ...       0.00
freq.    3105.11  E(vib)   ...       0.00
freq.    3108.84  E(vib)   ...       0.00
freq.    3110.10  E(vib)   ...       0.00
freq.    3114.00  E(vib)   ...       0.00
freq.    3133.39  E(vib)   ...       0.00
freq.    3134.25  E(vib)   ...       0.00
freq.    3175.71  E(vib)   ...       0.00
freq.    3197.49  E(vib)   ...       0.00
freq.    3201.00  E(vib)   ...       0.00
freq.    3204.91  E(vib)   ...       0.00

Rotational constants in cm-1:     0.006951     0.006166     0.004620

                             ****ORCA TERMINATED NORMALLY****
TOTAL RUN TIME: 5 days 15 hours 59 minutes 16 seconds 354 msec
