                         Program Version 5.0.4 -  RELEASE  -
|  1> ! B3LYP/G FREQ Def2-TZVP(-f) Def2-TZVP/C Def2/J RIJCOSX TightSCF CPCM(Water) AllPop SOSCF
|  2> %maxcore 3000
|  3> %tddft
|  4>     NRoots 3
|  5>     IRoot 1
|  6> end
|  7>
|  8> * xyz 1 1
|  9>   C   -6.61768987981473     -1.50488354359515      0.05146485214456
| 10>   C   -6.64066271383959     -2.71893591446409     -0.85441671878089
| 11>   C   -5.61979009653114     -3.73435054822502     -0.36344531710655
| 12>   H   -6.41554775819446     -2.41771239323737     -1.88010709458057
| 13>   H   -7.64535145595529     -3.14056725309749     -0.84484599935711
| 14>   C   -4.26610565528973     -3.10066166365401     -0.22847880075843
| 15>   H   -5.55480951943940     -4.59475990409410     -1.02891410783046
| 16>   H   -5.92887191869556     -4.11252311919706      0.61784044115340
| 17>   C   -4.15417472510938     -1.68849278876247      0.07637446288821
| 18>   N   -5.26370701600544     -0.94745237214609      0.20965905892610
| 19>   H   -6.98700750717321     -1.75467640971849      1.05173539183706
| 20>   H   -7.24183167717099     -0.70449854402745     -0.34045625739536
| 21>   C   -5.20853876530423      0.45725677387580      0.64676960315112
| 22>   C   -3.96437810737637      1.15199934474615      0.13182664932400
| 23>   H   -5.23773938285154      0.46365315672789      1.74114549363460
| 24>   H   -6.11279928546248      0.93978249807965      0.28535462192171
| 25>   C   -2.72564937879723      0.38232588676584      0.56617390797749
| 26>   H   -3.94158877125380      2.16811267185988      0.52422337208994
| 27>   H   -4.00923989967831      1.21709526370442     -0.95750007825442
| 28>   C   -2.86526548627591     -1.08050455504116      0.25511275904095
| 29>   H   -2.57327724805203      0.49966484916317      1.64493248956937
| 30>   H   -1.83252350773553      0.77585116297488      0.08312826034982
| 31>   C   -3.12380399992908     -3.83443678634261     -0.35757536731427
| 32>   C   -1.76103990569442     -1.89038616580578      0.13501215659944
| 33>   C   -1.84743381716399     -3.26207060560551     -0.17892895816185
| 34>   O   -0.53924528665630     -1.31151415213380      0.32759897384209
| 35>   C   0.64782981308678     -2.00495677795358      0.22028093499394
| 36>   C   -0.64498752654275     -4.00638463998752     -0.30282260521545
| 37>   C   0.56994122099214     -3.42780269580914     -0.12194280539848
| 38>   O   1.66370625506757     -1.37967131432308      0.41200911291378
| 39>   C   1.83772901635591     -4.19170718802229     -0.24402414274054
| 40>   C   2.48612570104205     -4.68246965418724      0.92118599249456
| 41>   C   2.35719627922592     -4.42624040109817     -1.48153460786617
| 42>   N   3.53960803986748     -5.13834942315829     -1.61552168562437
| 43>   C   4.20045449662056     -5.63296531084373     -0.49631162686690
| 44>   C   3.68981325544751     -5.41363991614956      0.74269268014493
| 45>   H   1.90326269690252     -4.07603182759001     -2.39459214788062
| 46>   H   4.22052312949949     -5.80772723907516      1.59833676649823
| 47>   H   5.10988540409974     -6.17938461700244     -0.68624307951565
| 48>   H   2.07489511204649     -4.50628421162679      1.90145367095340
| 49>   H   -3.18751577805849     -4.88917477196997     -0.59292834200479
| 50>   H   -0.71043304046035     -5.05924053411585     -0.54789317460536
| 51>   H   3.90620869025757     -5.31966436583722     -2.53291873519047
| 52> *
| 53>
| 54>
| 55>                          ****END OF INPUT****

CARTESIAN COORDINATES (ANGSTROEM)
---------------------------------
  C     -6.617690   -1.504884    0.051465
  C     -6.640663   -2.718936   -0.854417
  C     -5.619790   -3.734351   -0.363445
  H     -6.415548   -2.417712   -1.880107
  H     -7.645351   -3.140567   -0.844846
  C     -4.266106   -3.100662   -0.228479
  H     -5.554810   -4.594760   -1.028914
  H     -5.928872   -4.112523    0.617840
  C     -4.154175   -1.688493    0.076374
  N     -5.263707   -0.947452    0.209659
  H     -6.987008   -1.754676    1.051735
  H     -7.241832   -0.704499   -0.340456
  C     -5.208539    0.457257    0.646770
  C     -3.964378    1.151999    0.131827
  H     -5.237739    0.463653    1.741145
  H     -6.112799    0.939782    0.285355
  C     -2.725649    0.382326    0.566174
  H     -3.941589    2.168113    0.524223
  H     -4.009240    1.217095   -0.957500
  C     -2.865265   -1.080505    0.255113
  H     -2.573277    0.499665    1.644932
  H     -1.832524    0.775851    0.083128
  C     -3.123804   -3.834437   -0.357575
  C     -1.761040   -1.890386    0.135012
  C     -1.847434   -3.262071   -0.178929
  O     -0.539245   -1.311514    0.327599
  C      0.647830   -2.004957    0.220281
  C     -0.644988   -4.006385   -0.302823
  C      0.569941   -3.427803   -0.121943
  O      1.663706   -1.379671    0.412009
  C      1.837729   -4.191707   -0.244024
  C      2.486126   -4.682470    0.921186
  C      2.357196   -4.426240   -1.481535
  N      3.539608   -5.138349   -1.615522
  C      4.200454   -5.632965   -0.496312
  C      3.689813   -5.413640    0.742693
  H      1.903263   -4.076032   -2.394592
  H      4.220523   -5.807727    1.598337
  H      5.109885   -6.179385   -0.686243
  H      2.074895   -4.506284    1.901454
  H     -3.187516   -4.889175   -0.592928
  H     -0.710433   -5.059241   -0.547893
  H      3.906209   -5.319664   -2.532919

 Total Charge           Charge          ....    1
 Multiplicity           Mult            ....    1
 Number of Electrons    NEL             ....  168
 Basis Dimension        Dim             ....  690

ORBITAL ENERGIES
----------------

  NO   OCC          E(Eh)            E(eV)
   0   2.0000     -19.199407      -522.4424
   1   2.0000     -19.117977      -520.2266
   2   2.0000     -14.439385      -392.9156
   3   2.0000     -14.348105      -390.4318
   4   2.0000     -10.313688      -280.6497
   5   2.0000     -10.271319      -279.4968
   6   2.0000     -10.271223      -279.4942
   7   2.0000     -10.248225      -278.8684
   8   2.0000     -10.242905      -278.7236
   9   2.0000     -10.236367      -278.5457
  10   2.0000     -10.232714      -278.4463
  11   2.0000     -10.224095      -278.2118
  12   2.0000     -10.208213      -277.7796
  13   2.0000     -10.204986      -277.6918
  14   2.0000     -10.204377      -277.6752
  15   2.0000     -10.201037      -277.5843
  16   2.0000     -10.185588      -277.1639
  17   2.0000     -10.182463      -277.0789
  18   2.0000     -10.182455      -277.0787
  19   2.0000     -10.180391      -277.0225
  20   2.0000     -10.174450      -276.8609
  21   2.0000     -10.172846      -276.8172
  22   2.0000     -10.171162      -276.7714
  23   2.0000     -10.171069      -276.7689
  24   2.0000      -1.128333       -30.7035
  25   2.0000      -1.042815       -28.3765
  26   2.0000      -1.024523       -27.8787
  27   2.0000      -0.973378       -26.4870
  28   2.0000      -0.879611       -23.9354
  29   2.0000      -0.865144       -23.5418
  30   2.0000      -0.839537       -22.8450
  31   2.0000      -0.831418       -22.6240
  32   2.0000      -0.813494       -22.1363
  33   2.0000      -0.781564       -21.2674
  34   2.0000      -0.768558       -20.9135
  35   2.0000      -0.760888       -20.7048
  36   2.0000      -0.704708       -19.1761
  37   2.0000      -0.700137       -19.0517
  38   2.0000      -0.692839       -18.8531
  39   2.0000      -0.669577       -18.2201
  40   2.0000      -0.658934       -17.9305
  41   2.0000      -0.639757       -17.4087
  42   2.0000      -0.632035       -17.1986
  43   2.0000      -0.618950       -16.8425
  44   2.0000      -0.598648       -16.2900
  45   2.0000      -0.566015       -15.4020
  46   2.0000      -0.544072       -14.8049
  47   2.0000      -0.542762       -14.7693
  48   2.0000      -0.537856       -14.6358
  49   2.0000      -0.531517       -14.4633
  50   2.0000      -0.518856       -14.1188
  51   2.0000      -0.498661       -13.5693
  52   2.0000      -0.489666       -13.3245
  53   2.0000      -0.484366       -13.1803
  54   2.0000      -0.478770       -13.0280
  55   2.0000      -0.474434       -12.9100
  56   2.0000      -0.466635       -12.6978
  57   2.0000      -0.462735       -12.5917
  58   2.0000      -0.458663       -12.4809
  59   2.0000      -0.447089       -12.1659
  60   2.0000      -0.444721       -12.1015
  61   2.0000      -0.436565       -11.8795
  62   2.0000      -0.431601       -11.7445
  63   2.0000      -0.423238       -11.5169
  64   2.0000      -0.421204       -11.4615
  65   2.0000      -0.412159       -11.2154
  66   2.0000      -0.410204       -11.1622
  67   2.0000      -0.405893       -11.0449
  68   2.0000      -0.397578       -10.8187
  69   2.0000      -0.381982       -10.3943
  70   2.0000      -0.369313       -10.0495
  71   2.0000      -0.362185        -9.8556
  72   2.0000      -0.354985        -9.6596
  73   2.0000      -0.346334        -9.4242
  74   2.0000      -0.345069        -9.3898
  75   2.0000      -0.341033        -9.2800
  76   2.0000      -0.338029        -9.1982
  77   2.0000      -0.324714        -8.8359
  78   2.0000      -0.320546        -8.7225
  79   2.0000      -0.315075        -8.5736
  80   2.0000      -0.297441        -8.0938
  81   2.0000      -0.276998        -7.5375
  82   2.0000      -0.243073        -6.6144
  83   2.0000      -0.193961        -5.2779
  84   0.0000      -0.108245        -2.9455
  85   0.0000      -0.064873        -1.7653
  86   0.0000      -0.056154        -1.5280
  87   0.0000      -0.012515        -0.3406
  88   0.0000      -0.000963        -0.0262

MULLIKEN ATOMIC CHARGES
-----------------------
   0 C :   -0.119936
   1 C :   -0.163893
   2 C :   -0.230156
   3 H :    0.104992
   4 H :    0.117734
   5 C :    0.244224
   6 H :    0.126893
   7 H :    0.110696
   8 C :   -0.005977
   9 N :   -0.133356
  10 H :    0.112478
  11 H :    0.132595
  12 C :   -0.122966
  13 C :   -0.150051
  14 H :    0.112477
  15 H :    0.135990
  16 C :   -0.277740
  17 H :    0.117484
  18 H :    0.105191
  19 C :    0.107208
  20 H :    0.113566
  21 H :    0.126928
  22 C :   -0.538825
  23 C :    0.081503
  24 C :    0.459251
  25 O :   -0.382192
  26 C :    0.439544
  27 C :   -0.326446
  28 C :    0.117417
  29 O :   -0.560328
  30 C :    0.251793
  31 C :   -0.149148
  32 C :   -0.013130
  33 N :   -0.195584
  34 C :    0.087017
  35 C :   -0.027805
  36 H :    0.191278
  37 H :    0.156289
  38 H :    0.190992
  39 H :    0.168899
  40 H :    0.089616
  41 H :    0.130387
  42 H :    0.265089
Sum of atomic charges:    1.0000000

LOEWDIN ATOMIC CHARGES
----------------------
   0 C :   -0.181763
   1 C :   -0.217443
   2 C :   -0.187380
   3 H :    0.130559
   4 H :    0.132665
   5 C :   -0.110553
   6 H :    0.136499
   7 H :    0.138761
   8 C :   -0.067091
   9 N :    0.132669
  10 H :    0.126781
  11 H :    0.130320
  12 C :   -0.178366
  13 C :   -0.216315
  14 H :    0.127409
  15 H :    0.130714
  16 C :   -0.188677
  17 H :    0.132536
  18 H :    0.130958
  19 C :   -0.093331
  20 H :    0.138842
  21 H :    0.135887
  22 C :   -0.070318
  23 C :   -0.096981
  24 C :   -0.128521
  25 O :    0.223029
  26 C :   -0.256650
  27 C :   -0.016124
  28 C :   -0.110656
  29 O :   -0.065026
  30 C :   -0.082567
  31 C :    0.032441
  32 C :    0.006736
  33 N :    0.208854
  34 C :   -0.030571
  35 C :   -0.083578
  36 H :    0.166713
  37 H :    0.162712
  38 H :    0.162258
  39 H :    0.162385
  40 H :    0.149235
  41 H :    0.158426
  42 H :    0.224520

  Mayer bond orders larger than 0.100000
B(  0-C ,  1-C ) :   1.0096 B(  0-C ,  9-N ) :   0.9330 B(  0-C , 10-H ) :   0.9511
B(  0-C , 11-H ) :   0.9508 B(  1-C ,  2-C ) :   1.0165 B(  1-C ,  3-H ) :   0.9683
B(  1-C ,  4-H ) :   0.9593 B(  2-C ,  5-C ) :   0.9944 B(  2-C ,  6-H ) :   0.9559
B(  2-C ,  7-H ) :   0.9468 B(  5-C ,  8-C ) :   1.2268 B(  5-C , 22-C ) :   1.4003
B(  8-C ,  9-N ) :   1.3989 B(  8-C , 19-C ) :   1.2294 B(  9-N , 12-C ) :   0.9344
B( 12-C , 13-C ) :   0.9988 B( 12-C , 14-H ) :   0.9521 B( 12-C , 15-H ) :   0.9531
B( 13-C , 16-C ) :   1.0343 B( 13-C , 17-H ) :   0.9622 B( 13-C , 18-H ) :   0.9668
B( 16-C , 19-C ) :   1.0341 B( 16-C , 20-H ) :   0.9560 B( 16-C , 21-H ) :   0.9474
B( 19-C , 23-C ) :   1.3573 B( 22-C , 24-C ) :   1.0987 B( 22-C , 40-H ) :   1.0536
B( 23-C , 24-C ) :   1.3412 B( 23-C , 25-O ) :   1.0195 B( 24-C , 27-C ) :   1.1189
B( 25-O , 26-C ) :   1.0901 B( 26-C , 28-C ) :   1.1081 B( 26-C , 29-O ) :   1.9634
B( 27-C , 28-C ) :   1.4877 B( 27-C , 41-H ) :   0.9915 B( 28-C , 30-C ) :   0.9068
B( 30-C , 31-C ) :   1.3954 B( 30-C , 32-C ) :   1.4801 B( 31-C , 33-N ) :   0.1132
B( 31-C , 35-C ) :   1.3925 B( 31-C , 39-H ) :   0.9516 B( 32-C , 33-N ) :   1.3081
B( 32-C , 36-H ) :   0.9265 B( 33-N , 34-C ) :   1.2959 B( 33-N , 42-H ) :   0.8947
B( 34-C , 35-C ) :   1.4998 B( 34-C , 38-H ) :   0.9314 B( 35-C , 37-H ) :   0.9500

-----------------------------------------------------------------------------
         ABSORPTION SPECTRUM VIA TRANSITION ELECTRIC DIPOLE MOMENTS
-----------------------------------------------------------------------------
State   Energy    Wavelength  fosc         T2        TX        TY        TZ
        (cm-1)      (nm)                 (au**2)    (au)      (au)      (au)
-----------------------------------------------------------------------------
   1   14860.7    672.9   0.010743082   0.23799  -0.46197   0.15527  -0.02170
   2   25819.3    387.3   0.006969437   0.08886  -0.29036   0.06738   0.00433
   3   25953.8    385.3   0.001679300   0.02130   0.01015  -0.13999  -0.04001

FINAL SINGLE POINT ENERGY     -1033.697178234219

DIPOLE MOMENT
-------------
                                X             Y             Z
Electronic contribution:     24.97462      -7.62563      -0.71836
Nuclear contribution   :    -21.27317       2.79300      -1.04367
                        -----------------------------------------
Total Dipole Moment    :      3.70145      -4.83262      -1.76203
                        -----------------------------------------
Magnitude (a.u.)       :      6.33717
Magnitude (Debye)      :     16.10781

VIBRATIONAL FREQUENCIES
-----------------------

Scaling factor for frequencies =  1.000000000 (already applied!)

   0:         0.00 cm**-1
   1:         0.00 cm**-1
   2:         0.00 cm**-1
   3:         0.00 cm**-1
   4:         0.00 cm**-1
   5:         0.00 cm**-1
   6:        27.79 cm**-1
   7:        29.80 cm**-1
   8:        60.69 cm**-1
   9:        64.92 cm**-1
  10:        69.55 cm**-1
  11:        90.44 cm**-1
  12:       124.96 cm**-1
  13:       131.82 cm**-1
  14:       159.51 cm**-1
  15:       182.39 cm**-1
  16:       187.55 cm**-1
  17:       211.53 cm**-1
  18:       255.60 cm**-1
  19:       273.39 cm**-1
  20:       296.55 cm**-1
  21:       320.72 cm**-1
  22:       341.01 cm**-1
  23:       361.00 cm**-1
  24:       369.52 cm**-1
  25:       400.34 cm**-1
  26:       420.67 cm**-1
  27:       454.35 cm**-1
  28:       464.25 cm**-1
  29:       476.08 cm**-1
  30:       487.25 cm**-1
  31:       506.91 cm**-1
  32:       530.32 cm**-1
  33:       543.59 cm**-1
  34:       559.47 cm**-1
  35:       585.99 cm**-1
  36:       600.05 cm**-1
  37:       610.50 cm**-1
  38:       612.83 cm**-1
  39:       634.15 cm**-1
  40:       656.88 cm**-1
  41:       696.02 cm**-1
  42:       705.39 cm**-1
  43:       724.87 cm**-1
  44:       738.67 cm**-1
  45:       774.68 cm**-1
  46:       786.96 cm**-1
  47:       800.51 cm**-1
  48:       805.28 cm**-1
  49:       854.67 cm**-1
  50:       866.71 cm**-1
  51:       877.16 cm**-1
  52:       889.31 cm**-1
  53:       897.30 cm**-1
  54:       906.25 cm**-1
  55:       921.09 cm**-1
  56:       937.09 cm**-1
  57:       951.57 cm**-1
  58:       972.58 cm**-1
  59:       984.34 cm**-1
  60:       996.39 cm**-1
  61:      1028.30 cm**-1
  62:      1029.07 cm**-1
  63:      1038.81 cm**-1
  64:      1050.02 cm**-1
  65:      1060.59 cm**-1
  66:      1079.18 cm**-1
  67:      1088.94 cm**-1
  68:      1097.48 cm**-1
  69:      1105.43 cm**-1
  70:      1122.84 cm**-1
  71:      1148.71 cm**-1
  72:      1189.35 cm**-1
  73:      1200.12 cm**-1
  74:      1208.50 cm**-1
  75:      1212.62 cm**-1
  76:      1229.42 cm**-1
  77:      1232.82 cm**-1
  78:      1236.23 cm**-1
  79:      1267.45 cm**-1
  80:      1293.42 cm**-1
  81:      1307.16 cm**-1
  82:      1310.30 cm**-1
  83:      1318.87 cm**-1
  84:      1342.06 cm**-1
  85:      1347.03 cm**-1
  86:      1352.65 cm**-1
  87:      1356.69 cm**-1
  88:      1379.94 cm**-1
  89:      1383.78 cm**-1
  90:      1386.63 cm**-1
  91:      1392.77 cm**-1
  92:      1400.68 cm**-1
  93:      1439.54 cm**-1
  94:      1447.00 cm**-1
  95:      1457.74 cm**-1
  96:      1459.66 cm**-1
  97:      1470.48 cm**-1
  98:      1473.08 cm**-1
  99:      1476.31 cm**-1
 100:      1484.22 cm**-1
 101:      1485.54 cm**-1
 102:      1493.22 cm**-1
 103:      1512.03 cm**-1
 104:      1533.30 cm**-1
 105:      1577.48 cm**-1
 106:      1594.45 cm**-1
 107:      1647.45 cm**-1
 108:      1676.68 cm**-1
 109:      1726.09 cm**-1
 110:      3014.82 cm**-1
 111:      3018.23 cm**-1
 112:      3023.99 cm**-1
 113:      3031.78 cm**-1
 114:      3052.33 cm**-1
 115:      3055.70 cm**-1
 116:      3096.22 cm**-1
 117:      3102.51 cm**-1
 118:      3106.17 cm**-1
 119:      3108.69 cm**-1
 120:      3114.93 cm**-1
 121:      3132.01 cm**-1
 122:      3194.67 cm**-1
 123:      3196.16 cm**-1
 124:      3199.54 cm**-1
 125:      3234.32 cm**-1
 126:      3238.92 cm**-1
 127:      3245.98 cm**-1
 128:      3658.66 cm**-1

IR SPECTRUM
-----------

 Mode   freq       eps      Int      T**2         TX        TY        TZ
       cm**-1   L/(mol*cm) km/mol    a.u.
----------------------------------------------------------------------------
  6:     27.79   0.001836    9.28  0.020613  ( 0.040162 -0.015060  0.137017)
  7:     29.80   0.000989    5.00  0.010355  ( 0.048630  0.077523 -0.044504)
  8:     60.69   0.002554   12.91  0.013132  (-0.056999 -0.094260 -0.031597)
  9:     64.92   0.000525    2.65  0.002523  ( 0.014361  0.027902 -0.039225)
 10:     69.55   0.000052    0.26  0.000233  (-0.007132 -0.011886 -0.006365)
 11:     90.44   0.000246    1.24  0.000850  (-0.007669  0.015372 -0.023552)
 12:    124.96   0.011617   58.71  0.029012  (-0.086298 -0.146764  0.005002)
 13:    131.82   0.000939    4.75  0.002224  (-0.012529 -0.011093  0.044091)
 14:    159.51   0.000249    1.26  0.000487  (-0.002339 -0.010842 -0.019073)
 15:    182.39   0.001143    5.78  0.001956  ( 0.025536  0.035887  0.003957)
 16:    187.55   0.000758    3.83  0.001262  ( 0.023243 -0.021607  0.015962)
 17:    211.53   0.003359   16.97  0.004955  (-0.069888  0.005443  0.006404)
 18:    255.60   0.000745    3.76  0.000909  ( 0.026031  0.015137  0.001542)
 19:    273.39   0.009607   48.55  0.010966  (-0.025487 -0.101079 -0.009949)
 20:    296.55   0.000856    4.33  0.000901  (-0.003394  0.009391 -0.028307)
 21:    320.72   0.000934    4.72  0.000909  ( 0.017269  0.010797 -0.022222)
 22:    341.01   0.004146   20.95  0.003794  (-0.060196 -0.010400 -0.007873)
 23:    361.00   0.000953    4.82  0.000824  (-0.005547 -0.027598  0.005630)
 24:    369.52   0.000806    4.07  0.000681  ( 0.003947 -0.019031  0.017402)
 25:    400.34   0.000511    2.58  0.000399  (-0.019918 -0.000529 -0.001241)
 26:    420.67   0.000871    4.40  0.000646  ( 0.016923 -0.018870 -0.001892)
 27:    454.35   0.005241   26.49  0.003600  (-0.052812  0.028307 -0.003035)
 28:    464.25   0.001115    5.63  0.000749  (-0.019288 -0.015956 -0.011083)
 29:    476.08   0.003679   18.59  0.002411  ( 0.047407 -0.012626  0.002124)
 30:    487.25   0.004511   22.80  0.002889  (-0.049615  0.018519  0.009195)
 31:    506.91   0.000738    3.73  0.000455  ( 0.018625  0.009576 -0.003995)
 32:    530.32   0.003227   16.31  0.001899  (-0.042816  0.008113  0.000400)
 33:    543.59   0.000610    3.08  0.000350  (-0.016721  0.008181  0.001840)
 34:    559.47   0.005285   26.71  0.002948  (-0.051564 -0.009989 -0.013763)
 35:    585.99   0.005705   28.83  0.003038  ( 0.045072 -0.031605 -0.002803)
 36:    600.05   0.007166   36.21  0.003727  (-0.033611 -0.050805 -0.004005)
 37:    610.50   0.000351    1.77  0.000179  (-0.004211 -0.012076  0.003960)
 38:    612.83   0.001917    9.69  0.000976  ( 0.030427 -0.005153 -0.004859)
 39:    634.15   0.000549    2.77  0.000270  (-0.016363 -0.001498  0.000259)
 40:    656.88   0.000519    2.62  0.000246  (-0.011605  0.009472  0.004699)
 41:    696.02   0.008154   41.21  0.003656  (-0.057333 -0.019175  0.001014)
 42:    705.39   0.000630    3.18  0.000279  ( 0.014786 -0.007694  0.000918)
 43:    724.87   0.008170   41.29  0.003517  ( 0.028697  0.051737  0.004142)
 44:    738.67   0.001743    8.81  0.000736  (-0.000413  0.026672  0.004993)
 45:    774.68   0.002314   11.69  0.000932  (-0.021233  0.003639  0.021636)
 46:    786.96   0.001636    8.27  0.000649  (-0.023332  0.007753  0.006659)
 47:    800.51   0.007731   39.07  0.003014  (-0.000281 -0.007508  0.054381)
 48:    805.28   0.003418   17.27  0.001324  ( 0.010723 -0.017766  0.029896)
 49:    854.67   0.000466    2.36  0.000170  (-0.010990 -0.000052  0.007038)
 50:    866.71   0.002198   11.11  0.000791  ( 0.027936 -0.003185  0.000850)
 51:    877.16   0.003401   17.19  0.001210  ( 0.022193 -0.026636 -0.002808)
 52:    889.31   0.001234    6.24  0.000433  ( 0.009897  0.013115  0.012774)
 53:    897.30   0.000791    4.00  0.000275  (-0.015202 -0.001728  0.006416)
 54:    906.25   0.007170   36.23  0.002469  ( 0.048704  0.009219 -0.003428)
 55:    921.09   0.001464    7.40  0.000496  ( 0.001524  0.004491 -0.021757)
 56:    937.09   0.000787    3.98  0.000262  ( 0.005901  0.015078 -0.000147)
 57:    951.57   0.005525   27.92  0.001812  ( 0.036086 -0.022398 -0.002807)
 58:    972.58   0.007321   37.00  0.002349  ( 0.010628  0.005785 -0.046931)
 59:    984.34   0.002521   12.74  0.000799  (-0.020234  0.009156  0.017495)
 60:    996.39   0.008133   41.10  0.002547  (-0.044445  0.020529 -0.012266)
 61:   1028.30   0.001323    6.69  0.000402  ( 0.017149 -0.009507 -0.004133)
 62:   1029.07   0.001003    5.07  0.000304  ( 0.008157 -0.014704 -0.004613)
 63:   1038.81   0.004725   23.88  0.001419  (-0.008235 -0.032036 -0.018034)
 64:   1050.02   0.004717   23.84  0.001402  (-0.037429  0.000187 -0.000989)
 65:   1060.59   0.001196    6.04  0.000352  (-0.002811  0.016164 -0.009096)
 66:   1079.18   0.001039    5.25  0.000301  ( 0.004122 -0.006203  0.015654)
 67:   1088.94   0.002195   11.09  0.000629  (-0.022546 -0.009897  0.004775)
 68:   1097.48   0.001268    6.41  0.000361  ( 0.005792 -0.006456 -0.016890)
 69:   1105.43   0.010665   53.90  0.003011  ( 0.044711 -0.031561 -0.003946)
 70:   1122.84   0.005611   28.35  0.001559  ( 0.027491 -0.027992  0.004476)
 71:   1148.71   0.007889   39.87  0.002143  ( 0.000854  0.045057  0.010594)
 72:   1189.35   0.003356   16.96  0.000881  (-0.026494  0.013365 -0.000046)
 73:   1200.12   0.073030  369.07  0.018990  ( 0.137733 -0.004393  0.000030)
 74:   1208.50   0.001562    7.89  0.000403  ( 0.017349  0.004594  0.009012)
 75:   1212.62   0.001398    7.06  0.000360  ( 0.011763 -0.013651  0.005911)
 76:   1229.42   0.068841  347.89  0.017474  ( 0.125899 -0.040256 -0.001625)
 77:   1232.82   0.000810    4.09  0.000205  ( 0.012252 -0.006592  0.003394)
 78:   1236.23   0.048209  243.63  0.012169  ( 0.097581 -0.050862 -0.007772)
 79:   1267.45   0.001421    7.18  0.000350  ( 0.009074 -0.010177 -0.012805)
 80:   1293.42   0.001268    6.41  0.000306  (-0.014098 -0.010181 -0.001862)
 81:   1307.16   0.093149  470.74  0.022238  ( 0.147538 -0.020277 -0.007690)
 82:   1310.30   0.146934  742.54  0.034994  ( 0.181050 -0.045788  0.010889)
 83:   1318.87   0.002726   13.77  0.000645  (-0.010117  0.000349  0.023290)
 84:   1342.06   0.103457  522.83  0.024056  ( 0.148967 -0.042628 -0.006937)
 85:   1347.03   0.035547  179.64  0.008235  (-0.081791  0.039189 -0.003079)
 86:   1352.65   0.029627  149.72  0.006835  (-0.063662  0.050806  0.014177)
 87:   1356.69   0.000482    2.43  0.000111  (-0.009182  0.005111  0.000633)
 88:   1379.94   0.001731    8.75  0.000391  ( 0.019775 -0.000277  0.000526)
 89:   1383.78   0.021550  108.90  0.004860  ( 0.041323 -0.054189 -0.014688)
 90:   1386.63   0.007252   36.65  0.001632  (-0.003079 -0.037920 -0.013591)
 91:   1392.77   0.020311  102.64  0.004551  ( 0.057635 -0.031913 -0.014516)
 92:   1400.68   0.010626   53.70  0.002367  (-0.034847  0.032767  0.008914)
 93:   1439.54   0.005798   29.30  0.001257  (-0.015209  0.012785  0.029361)
 94:   1447.00   0.023384  118.17  0.005043  ( 0.052403 -0.047695  0.004698)
 95:   1457.74   0.014309   72.31  0.003063  (-0.053002  0.015582  0.003318)
 96:   1459.66   0.003071   15.52  0.000657  (-0.022761  0.011652  0.001640)
 97:   1470.48   0.019809  100.11  0.004204  ( 0.057956 -0.025826  0.013342)
 98:   1473.08   0.001650    8.34  0.000350  ( 0.006157 -0.016419 -0.006484)
 99:   1476.31   0.003387   17.12  0.000716  ( 0.022722 -0.014084  0.001125)
100:   1484.22   0.000543    2.74  0.000114  ( 0.008760  0.005972  0.001309)
101:   1485.54   0.002068   10.45  0.000434  ( 0.015943 -0.001980 -0.013278)
102:   1493.22   0.019890  100.51  0.004157  (-0.040352  0.045207  0.022017)
103:   1512.03   0.035830  181.07  0.007395  (-0.078210  0.035318  0.005543)
104:   1533.30   0.179362  906.42  0.036504  (-0.182465  0.054549  0.015347)
105:   1577.48   0.088329  446.38  0.017474  ( 0.130370  0.021719 -0.002343)
106:   1594.45   0.190821  964.33  0.037347  ( 0.185364 -0.053214  0.012478)
107:   1647.45   0.007326   37.02  0.001388  ( 0.029310 -0.022948  0.001402)
108:   1676.68   0.008960   45.28  0.001668  (-0.007902  0.000870 -0.040055)
109:   1726.09   0.331832  1676.94  0.059992  (-0.222181 -0.098165 -0.031488)
110:   3014.82   0.008687   43.90  0.000899  ( 0.018440  0.019939 -0.012711)
111:   3018.23   0.007142   36.09  0.000738  (-0.009018 -0.013977 -0.021489)
112:   3023.99   0.016289   82.32  0.001681  (-0.038374  0.002876  0.014147)
113:   3031.78   0.033165  167.60  0.003414  ( 0.041594 -0.026447 -0.031372)
114:   3052.33   0.007920   40.03  0.000810  (-0.003911  0.002870 -0.028040)
115:   3055.70   0.012884   65.11  0.001316  ( 0.000448 -0.013898  0.033502)
116:   3096.22   0.007990   40.38  0.000805  ( 0.008591  0.021097  0.016925)
117:   3102.51   0.005565   28.12  0.000560  (-0.012834 -0.018546  0.007148)
118:   3106.17   0.012032   60.80  0.001209  ( 0.033331  0.005179 -0.008425)
119:   3108.69   0.010243   51.76  0.001028  (-0.009056  0.021853  0.021649)
120:   3114.93   0.004849   24.51  0.000486  (-0.009333  0.016873 -0.010676)
121:   3132.01   0.014469   73.12  0.001442  ( 0.029135 -0.019782  0.014193)
122:   3194.67   0.000423    2.14  0.000041  (-0.005808 -0.002605 -0.000915)
123:   3196.16   0.002144   10.83  0.000209  ( 0.003369  0.013694  0.003234)
124:   3199.54   0.000332    1.68  0.000032  (-0.002801  0.001152  0.004813)
125:   3234.32   0.001022    5.16  0.000099  ( 0.002434  0.000053 -0.009625)
126:   3238.92   0.002412   12.19  0.000232  ( 0.007343 -0.005744  0.012061)
127:   3245.98   0.001994   10.07  0.000192  ( 0.011545 -0.007045 -0.002955)
128:   3658.66   0.068446  345.90  0.005838  ( 0.032522 -0.015233 -0.067441)

--------------------------
THERMOCHEMISTRY AT 298.15K
--------------------------

Temperature         ... 298.15 K
Pressure            ... 1.00 atm
Total Mass          ... 319.38 AMU

Throughout the following assumptions are being made:
  (1) The electronic state is orbitally nondegenerate
  (2) There are no thermally accessible electronically excited states
  (3) Hindered rotations indicated by low frequency modes are not
      treated as such but are treated as vibrations and this may
      cause some error
  (4) All equations used are the standard statistical mechanics
      equations for an ideal gas
  (5) All vibrations are strictly harmonic

freq.      27.79  E(vib)   ...       0.55
freq.      29.80  E(vib)   ...       0.55
freq.      60.69  E(vib)   ...       0.51
freq.      64.92  E(vib)   ...       0.50
freq.      69.55  E(vib)   ...       0.50
freq.      90.44  E(vib)   ...       0.47
freq.     124.96  E(vib)   ...       0.43
freq.     131.82  E(vib)   ...       0.42
freq.     159.51  E(vib)   ...       0.39
freq.     182.39  E(vib)   ...       0.37
freq.     187.55  E(vib)   ...       0.36
freq.     211.53  E(vib)   ...       0.34
freq.     255.60  E(vib)   ...       0.30
freq.     273.39  E(vib)   ...       0.29
freq.     296.55  E(vib)   ...       0.27
freq.     320.72  E(vib)   ...       0.25
freq.     341.01  E(vib)   ...       0.23
freq.     361.00  E(vib)   ...       0.22
freq.     369.52  E(vib)   ...       0.21
freq.     400.34  E(vib)   ...       0.19
freq.     420.67  E(vib)   ...       0.18
freq.     454.35  E(vib)   ...       0.16
freq.     464.25  E(vib)   ...       0.16
freq.     476.08  E(vib)   ...       0.15
freq.     487.25  E(vib)   ...       0.15
freq.     506.91  E(vib)   ...       0.14
freq.     530.32  E(vib)   ...       0.13
freq.     543.59  E(vib)   ...       0.12
freq.     559.47  E(vib)   ...       0.12
freq.     585.99  E(vib)   ...       0.11
freq.     600.05  E(vib)   ...       0.10
freq.     610.50  E(vib)   ...       0.10
freq.     612.83  E(vib)   ...       0.10
freq.     634.15  E(vib)   ...       0.09
freq.     656.88  E(vib)   ...       0.08
freq.     696.02  E(vib)   ...       0.07
freq.     705.39  E(vib)   ...       0.07
freq.     724.87  E(vib)   ...       0.06
freq.     738.67  E(vib)   ...       0.06
freq.     774.68  E(vib)   ...       0.05
freq.     786.96  E(vib)   ...       0.05
freq.     800.51  E(vib)   ...       0.05
freq.     805.28  E(vib)   ...       0.05
freq.     854.67  E(vib)   ...       0.04
freq.     866.71  E(vib)   ...       0.04
freq.     877.16  E(vib)   ...       0.04
freq.     889.31  E(vib)   ...       0.04
freq.     897.30  E(vib)   ...       0.03
freq.     906.25  E(vib)   ...       0.03
freq.     921.09  E(vib)   ...       0.03
freq.     937.09  E(vib)   ...       0.03
freq.     951.57  E(vib)   ...       0.03
freq.     972.58  E(vib)   ...       0.03
freq.     984.34  E(vib)   ...       0.02
freq.     996.39  E(vib)   ...       0.02
freq.    1028.30  E(vib)   ...       0.02
freq.    1029.07  E(vib)   ...       0.02
freq.    1038.81  E(vib)   ...       0.02
freq.    1050.02  E(vib)   ...       0.02
freq.    1060.59  E(vib)   ...       0.02
freq.    1079.18  E(vib)   ...       0.02
freq.    1088.94  E(vib)   ...       0.02
freq.    1097.48  E(vib)   ...       0.02
freq.    1105.43  E(vib)   ...       0.02
freq.    1122.84  E(vib)   ...       0.01
freq.    1148.71  E(vib)   ...       0.01
freq.    1189.35  E(vib)   ...       0.01
freq.    1200.12  E(vib)   ...       0.01
freq.    1208.50  E(vib)   ...       0.01
freq.    1212.62  E(vib)   ...       0.01
freq.    1229.42  E(vib)   ...       0.01
freq.    1232.82  E(vib)   ...       0.01
freq.    1236.23  E(vib)   ...       0.01
freq.    1267.45  E(vib)   ...       0.01
freq.    1293.42  E(vib)   ...       0.01
freq.    1307.16  E(vib)   ...       0.01
freq.    1310.30  E(vib)   ...       0.01
freq.    1318.87  E(vib)   ...       0.01
freq.    1342.06  E(vib)   ...       0.01
freq.    1347.03  E(vib)   ...       0.01
freq.    1352.65  E(vib)   ...       0.01
freq.    1356.69  E(vib)   ...       0.01
freq.    1379.94  E(vib)   ...       0.01
freq.    1383.78  E(vib)   ...       0.00
freq.    1386.63  E(vib)   ...       0.00
freq.    1392.77  E(vib)   ...       0.00
freq.    1400.68  E(vib)   ...       0.00
freq.    1439.54  E(vib)   ...       0.00
freq.    1447.00  E(vib)   ...       0.00
freq.    1457.74  E(vib)   ...       0.00
freq.    1459.66  E(vib)   ...       0.00
freq.    1470.48  E(vib)   ...       0.00
freq.    1473.08  E(vib)   ...       0.00
freq.    1476.31  E(vib)   ...       0.00
freq.    1484.22  E(vib)   ...       0.00
freq.    1485.54  E(vib)   ...       0.00
freq.    1493.22  E(vib)   ...       0.00
freq.    1512.03  E(vib)   ...       0.00
freq.    1533.30  E(vib)   ...       0.00
freq.    1577.48  E(vib)   ...       0.00
freq.    1594.45  E(vib)   ...       0.00
freq.    1647.45  E(vib)   ...       0.00
freq.    1676.68  E(vib)   ...       0.00
freq.    1726.09  E(vib)   ...       0.00
freq.    3014.82  E(vib)   ...       0.00
freq.    3018.23  E(vib)   ...       0.00
freq.    3023.99  E(vib)   ...       0.00
freq.    3031.78  E(vib)   ...       0.00
freq.    3052.33  E(vib)   ...       0.00
freq.    3055.70  E(vib)   ...       0.00
freq.    3096.22  E(vib)   ...       0.00
freq.    3102.51  E(vib)   ...       0.00
freq.    3106.17  E(vib)   ...       0.00
freq.    3108.69  E(vib)   ...       0.00
freq.    3114.93  E(vib)   ...       0.00
freq.    3132.01  E(vib)   ...       0.00
freq.    3194.67  E(vib)   ...       0.00
freq.    3196.16  E(vib)   ...       0.00
freq.    3199.54  E(vib)   ...       0.00
freq.    3234.32  E(vib)   ...       0.00
freq.    3238.92  E(vib)   ...       0.00
freq.    3245.98  E(vib)   ...       0.00
freq.    3658.66  E(vib)   ...       0.00

------------
INNER ENERGY
------------

The inner energy is: U= E(el) + E(ZPE) + E(vib) + E(rot) + E(trans)
    E(el)   - is the total energy from the electronic structure calculation
              = E(kin-el) + E(nuc-el) + E(el-el) + E(nuc-nuc)
    E(ZPE)  - the the zero temperature vibrational energy from the frequency calculation
    E(vib)  - the the finite temperature correction to E(ZPE) due to population
              of excited vibrational states
    E(rot)  - is the rotational thermal energy
    E(trans)- is the translational thermal energy

Summary of contributions to the inner energy U:
Electronic energy                ...  -1033.69717823 Eh
Zero point energy                ...      0.35121808 Eh     220.39 kcal/mol
Thermal vibrational correction   ...      0.01671564 Eh      10.49 kcal/mol
Thermal rotational correction    ...      0.00141627 Eh       0.89 kcal/mol
Thermal translational correction ...      0.00141627 Eh       0.89 kcal/mol
-----------------------------------------------------------------------

Rotational constants in cm-1:     0.021241     0.003864     0.003411

                             ****ORCA TERMINATED NORMALLY****
TOTAL RUN TIME: 3 days 21 hours 33 minutes 23 seconds 562 msec
