                         Program Version 5.0.4 -  RELEASE  -
|  1> ! B3LYP/G OPT Def2-TZVP(-f) Def2-TZVP/C Def2/J RIJCOSX TightSCF CPCM(Water) AllPop SOSCF
|  2>
|  3> * xyz 1 1
|  4>    C       -6.61196       -1.55331        0.01410
|  5>    C       -6.58484       -2.70820       -0.99969
|  6>    C       -5.50831       -3.72272       -0.58293
|  7>    H       -6.35872       -2.31644       -1.99487
|  8>    H       -7.56288       -3.19257       -1.04605
|  9>    C       -4.17166       -3.04365       -0.31329
| 10>    H       -5.40091       -4.47283       -1.37018
| 11>    H       -5.83208       -4.24293        0.32172
| 12>    C       -4.11836       -1.67807        0.03070
| 13>    N       -5.28372       -0.93194        0.13089
| 14>    H       -6.91823       -1.93414        0.99262
| 15>    H       -7.34576       -0.81177       -0.31437
| 16>    C       -5.27070        0.43200        0.68370
| 17>    C       -4.01646        1.19138        0.22106
| 18>    H       -5.28092        0.37768        1.77617
| 19>    H       -6.15755        0.98149        0.35580
| 20>    C       -2.76186        0.40491        0.63166
| 21>    H       -3.99427        2.19045        0.66223
| 22>    H       -4.03933        1.30669       -0.86559
| 23>    C       -2.87311       -1.06749        0.25490
| 24>    H       -2.62049        0.48208        1.71220
| 25>    H       -1.88802        0.85577        0.15536
| 26>    C       -3.00860       -3.81759       -0.39134
| 27>    C       -1.67126       -1.85098        0.13120
| 28>    C       -1.75710       -3.25432       -0.15836
| 29>    O       -0.46373       -1.30976        0.52903
| 30>    C        0.73254       -1.94084        0.45477
| 31>    C       -0.59433       -4.01289       -0.20925
| 32>    C        0.66012       -3.35536        0.04479
| 33>    O        1.76235       -1.35664        0.72305
| 34>    C        1.83486       -4.17111       -0.12281
| 35>    C        2.71876       -4.40778        0.93493
| 36>    C        2.17534       -4.72730       -1.37131
| 37>    N        3.11574       -5.33885       -1.45327
| 38>    C        3.93981       -5.60628       -0.73561
| 39>    C        3.84181       -5.16624        0.59704
| 40>    H        1.55065       -4.56935       -2.24917
| 41>    H        4.61338       -5.39405        1.32845
| 42>    H        4.79870       -6.18629       -1.06974
| 43>    H        2.56182       -4.00980        1.93461
| 44>    H       -3.08457       -4.87571       -0.63169
| 45>    H       -0.64521       -5.07827       -0.42170
| 46>    H        3.10523       -6.00136       -2.22685
| 47> *
| 48>
| 49>
| 50>                          ****END OF INPUT****
 Total Charge           Charge          ....    1
 Multiplicity           Mult            ....    1
 Number of Electrons    NEL             ....  168
FINAL SINGLE POINT ENERGY     -1033.600126188412
FINAL SINGLE POINT ENERGY     -1033.719935919819
FINAL SINGLE POINT ENERGY     -1033.760592810202
FINAL SINGLE POINT ENERGY     -1033.771706047947
FINAL SINGLE POINT ENERGY     -1033.774009687792
FINAL SINGLE POINT ENERGY     -1033.775302713522
FINAL SINGLE POINT ENERGY     -1033.776307916185
FINAL SINGLE POINT ENERGY     -1033.776988743507
FINAL SINGLE POINT ENERGY     -1033.777290680955
FINAL SINGLE POINT ENERGY     -1033.777577354485
FINAL SINGLE POINT ENERGY     -1033.777739162973
FINAL SINGLE POINT ENERGY     -1033.777815012811
FINAL SINGLE POINT ENERGY     -1033.777843175533
FINAL SINGLE POINT ENERGY     -1033.777849001833
                    ***********************HURRAY********************

CARTESIAN COORDINATES (ANGSTROEM)
---------------------------------
  C     -6.623020   -1.495841   -0.055198
  C     -6.606446   -2.605192   -1.091706
  C     -5.595737   -3.667176   -0.678117
  H     -6.342135   -2.189910   -2.067857
  H     -7.606800   -3.032223   -1.174598
  C     -4.247500   -3.050300   -0.393549
  H     -5.492510   -4.434586   -1.446821
  H     -5.961256   -4.172195    0.222815
  C     -4.160665   -1.685518    0.047022
  N     -5.288721   -0.930257    0.155523
  H     -7.020745   -1.873247    0.895620
  H     -7.271889   -0.680733   -0.376734
  C     -5.251143    0.397905    0.768875
  C     -3.970003    1.132250    0.416915
  H     -5.351663    0.307154    1.858074
  H     -6.119801    0.947562    0.406961
  C     -2.760671    0.303733    0.833790
  H     -3.960334    2.101454    0.917204
  H     -3.945658    1.316939   -0.660078
  C     -2.891180   -1.123132    0.358551
  H     -2.662554    0.319164    1.924754
  H     -1.844050    0.742254    0.438953
  C     -3.101146   -3.785088   -0.536057
  C     -1.775060   -1.922361    0.207655
  C     -1.829105   -3.252826   -0.242573
  O     -0.558771   -1.370707    0.522064
  C      0.642645   -2.040808    0.412160
  C     -0.625815   -3.967411   -0.359939
  C      0.594274   -3.412926   -0.049905
  O      1.637721   -1.402183    0.705067
  C      1.848490   -4.165274   -0.195302
  C      2.954937   -3.998361    0.654877
  C      1.980247   -5.107473   -1.209793
  N      3.107027   -5.822188   -1.336898
  C      4.171100   -5.680638   -0.530671
  C      4.107361   -4.752165    0.485635
  H      1.214945   -5.305036   -1.944832
  H      4.953018   -4.627914    1.146087
  H      5.023376   -6.310797   -0.733056
  H      2.903332   -3.278951    1.457172
  H     -3.165109   -4.811917   -0.877951
  H     -0.682106   -4.998971   -0.688378
  H      3.159290   -6.498491   -2.092852

 Multiplicity           Mult            ....    1
 Number of Electrons    NEL             ....  168
 Basis Dimension        Dim             ....  690

ORBITAL ENERGIES
----------------

  NO   OCC          E(Eh)            E(eV)
   0   2.0000     -19.201188      -522.4909
   1   2.0000     -19.119425      -520.2660
   2   2.0000     -14.437127      -392.8542
   3   2.0000     -14.352188      -390.5429
   4   2.0000     -10.316695      -280.7316
   5   2.0000     -10.264332      -279.3067
   6   2.0000     -10.261407      -279.2271
   7   2.0000     -10.253473      -279.0112
   8   2.0000     -10.236759      -278.5564
   9   2.0000     -10.236005      -278.5358
  10   2.0000     -10.225812      -278.2585
  11   2.0000     -10.217656      -278.0366
  12   2.0000     -10.214418      -277.9485
  13   2.0000     -10.207664      -277.7646
  14   2.0000     -10.205618      -277.7090
  15   2.0000     -10.205058      -277.6937
  16   2.0000     -10.191166      -277.3157
  17   2.0000     -10.187771      -277.2233
  18   2.0000     -10.187728      -277.2222
  19   2.0000     -10.185393      -277.1586
  20   2.0000     -10.176223      -276.9091
  21   2.0000     -10.174518      -276.8627
  22   2.0000     -10.171612      -276.7836
  23   2.0000     -10.171562      -276.7823
  24   2.0000      -1.128220       -30.7004
  25   2.0000      -1.042896       -28.3786
  26   2.0000      -1.039925       -28.2978
  27   2.0000      -0.973787       -26.4981
  28   2.0000      -0.882731       -24.0203
  29   2.0000      -0.868949       -23.6453
  30   2.0000      -0.841043       -22.8859
  31   2.0000      -0.831497       -22.6262
  32   2.0000      -0.815837       -22.2001
  33   2.0000      -0.780844       -21.2479
  34   2.0000      -0.771715       -20.9994
  35   2.0000      -0.765337       -20.8259
  36   2.0000      -0.707881       -19.2624
  37   2.0000      -0.697336       -18.9755
  38   2.0000      -0.694497       -18.8982
  39   2.0000      -0.673563       -18.3286
  40   2.0000      -0.662188       -18.0190
  41   2.0000      -0.641416       -17.4538
  42   2.0000      -0.637240       -17.3402
  43   2.0000      -0.620143       -16.8750
  44   2.0000      -0.601594       -16.3702
  45   2.0000      -0.567369       -15.4389
  46   2.0000      -0.552355       -15.0304
  47   2.0000      -0.540977       -14.7207
  48   2.0000      -0.529725       -14.4145
  49   2.0000      -0.528904       -14.3922
  50   2.0000      -0.520188       -14.1550
  51   2.0000      -0.501184       -13.6379
  52   2.0000      -0.488176       -13.2840
  53   2.0000      -0.486694       -13.2436
  54   2.0000      -0.477829       -13.0024
  55   2.0000      -0.477133       -12.9835
  56   2.0000      -0.472371       -12.8539
  57   2.0000      -0.468756       -12.7555
  58   2.0000      -0.458113       -12.4659
  59   2.0000      -0.448300       -12.1989
  60   2.0000      -0.445157       -12.1133
  61   2.0000      -0.438240       -11.9251
  62   2.0000      -0.432747       -11.7756
  63   2.0000      -0.424719       -11.5572
  64   2.0000      -0.414881       -11.2895
  65   2.0000      -0.412773       -11.2321
  66   2.0000      -0.407457       -11.0875
  67   2.0000      -0.405315       -11.0292
  68   2.0000      -0.400881       -10.9085
  69   2.0000      -0.383644       -10.4395
  70   2.0000      -0.370823       -10.0906
  71   2.0000      -0.368311       -10.0222
  72   2.0000      -0.361089        -9.8257
  73   2.0000      -0.349209        -9.5025
  74   2.0000      -0.344777        -9.3818
  75   2.0000      -0.340936        -9.2773
  76   2.0000      -0.339033        -9.2256
  77   2.0000      -0.327963        -8.9243
  78   2.0000      -0.322461        -8.7746
  79   2.0000      -0.313402        -8.5281
  80   2.0000      -0.297885        -8.1059
  81   2.0000      -0.271134        -7.3779
  82   2.0000      -0.245598        -6.6831
  83   2.0000      -0.200778        -5.4635
  84   0.0000      -0.091716        -2.4957
  85   0.0000      -0.082861        -2.2548
  86   0.0000      -0.049165        -1.3378
  87   0.0000      -0.015401        -0.4191
  88   0.0000      -0.003095        -0.0842

MULLIKEN ATOMIC CHARGES
-----------------------
   0 C :   -0.114969
   1 C :   -0.166363
   2 C :   -0.230327
   3 H :    0.104150
   4 H :    0.119346
   5 C :    0.240430
   6 H :    0.127917
   7 H :    0.112997
   8 C :    0.006988
   9 N :   -0.136061
  10 H :    0.111095
  11 H :    0.133480
  12 C :   -0.116668
  13 C :   -0.151986
  14 H :    0.111003
  15 H :    0.135032
  16 C :   -0.276146
  17 H :    0.119119
  18 H :    0.104435
  19 C :    0.101994
  20 H :    0.116039
  21 H :    0.127574
  22 C :   -0.543381
  23 C :    0.086746
  24 C :    0.449010
  25 O :   -0.372543
  26 C :    0.431894
  27 C :   -0.320681
  28 C :    0.170241
  29 O :   -0.566441
  30 C :    0.218251
  31 C :   -0.155197
  32 C :   -0.003810
  33 N :   -0.225427
  34 C :    0.101942
  35 C :   -0.034915
  36 H :    0.191876
  37 H :    0.152007
  38 H :    0.188280
  39 H :    0.151397
  40 H :    0.093204
  41 H :    0.140213
  42 H :    0.268254
Sum of atomic charges:    1.0000000

LOEWDIN ATOMIC CHARGES
----------------------
   0 C :   -0.186140
   1 C :   -0.217803
   2 C :   -0.185514
   3 H :    0.130060
   4 H :    0.132337
   5 C :   -0.102498
   6 H :    0.136879
   7 H :    0.138410
   8 C :   -0.062030
   9 N :    0.132622
  10 H :    0.126718
  11 H :    0.131405
  12 C :   -0.184460
  13 C :   -0.216382
  14 H :    0.127102
  15 H :    0.131706
  16 C :   -0.185969
  17 H :    0.132484
  18 H :    0.130633
  19 C :   -0.086398
  20 H :    0.138563
  21 H :    0.136278
  22 C :   -0.060048
  23 C :   -0.084708
  24 C :   -0.129723
  25 O :    0.222888
  26 C :   -0.248009
  27 C :   -0.006718
  28 C :   -0.103343
  29 O :   -0.066308
  30 C :   -0.075678
  31 C :   -0.008092
  32 C :   -0.009512
  33 N :    0.209323
  34 C :   -0.048568
  35 C :   -0.085659
  36 H :    0.164559
  37 H :    0.160633
  38 H :    0.161027
  39 H :    0.159372
  40 H :    0.151013
  41 H :    0.160445
  42 H :    0.239102

  Mayer bond orders larger than 0.100000
B(  0-C ,  1-C ) :   1.0045 B(  0-C ,  9-N ) :   0.9438 B(  0-C , 10-H ) :   0.9475
B(  0-C , 11-H ) :   0.9507 B(  1-C ,  2-C ) :   1.0203 B(  1-C ,  3-H ) :   0.9684
B(  1-C ,  4-H ) :   0.9601 B(  2-C ,  5-C ) :   0.9961 B(  2-C ,  6-H ) :   0.9552
B(  2-C ,  7-H ) :   0.9455 B(  5-C ,  8-C ) :   1.2288 B(  5-C , 22-C ) :   1.4065
B(  8-C ,  9-N ) :   1.3792 B(  8-C , 19-C ) :   1.2412 B(  9-N , 12-C ) :   0.9435
B( 12-C , 13-C ) :   0.9989 B( 12-C , 14-H ) :   0.9483 B( 12-C , 15-H ) :   0.9521
B( 13-C , 16-C ) :   1.0352 B( 13-C , 17-H ) :   0.9621 B( 13-C , 18-H ) :   0.9666
B( 16-C , 19-C ) :   1.0372 B( 16-C , 20-H ) :   0.9536 B( 16-C , 21-H ) :   0.9471
B( 19-C , 23-C ) :   1.3450 B( 22-C , 24-C ) :   1.0874 B( 22-C , 40-H ) :   1.0498
B( 23-C , 24-C ) :   1.3452 B( 23-C , 25-O ) :   1.0211 B( 24-C , 27-C ) :   1.1737
B( 25-O , 26-C ) :   1.1000 B( 26-C , 28-C ) :   1.1287 B( 26-C , 29-O ) :   1.9005
B( 27-C , 28-C ) :   1.3738 B( 27-C , 41-H ) :   0.9662 B( 28-C , 30-C ) :   0.9672
B( 30-C , 31-C ) :   1.3612 B( 30-C , 32-C ) :   1.4357 B( 31-C , 35-C ) :   1.4394
B( 31-C , 39-H ) :   0.9497 B( 32-C , 33-N ) :   1.3291 B( 32-C , 36-H ) :   0.9186
B( 33-N , 34-C ) :   1.2974 B( 33-N , 42-H ) :   0.8923 B( 34-C , 35-C ) :   1.4452
B( 34-C , 38-H ) :   0.9320 B( 35-C , 37-H ) :   0.9536

FINAL SINGLE POINT ENERGY     -1033.777851914482

DIPOLE MOMENT
-------------
                                X             Y             Z
Electronic contribution:     24.12964      -8.10228      -0.08280
Nuclear contribution   :    -21.22893       2.90820      -1.84842
                        -----------------------------------------
Total Dipole Moment    :      2.90071      -5.19408      -1.93122
                        -----------------------------------------
Magnitude (a.u.)       :      6.25477
Magnitude (Debye)      :     15.89837

Rotational constants in cm-1:     0.021231     0.003909     0.003358
Rotational constants in MHz :   636.497124   117.174418   100.669614

                             ****ORCA TERMINATED NORMALLY****
TOTAL RUN TIME: 0 days 7 hours 40 minutes 41 seconds 822 msec
