                         Program Version 6.0.1  -  RELEASE   -
|  1> ! B3LYP/G VERYTIGHTOPT FREQ Def2-TZVP(-f) Def2-TZVP/C Def2/J RIJCOSX TightSCF CPCM(Water) AllPop SOSCF
|  2>
|  3> %tddft
|  4>     NRoots 3
|  5>     IRoot 1
|  6> end
|  7>
|  8> * xyz 0 1
|  9>   C          -3.31556253022893     -1.10750301527353     -0.25721246040825
| 10>   C          -2.76124871075397     -2.05539866418624     -1.12182282332210
| 11>   C          -1.42259013564319     -1.93593221100551     -1.47828552712168
| 12>   C          -2.53706165613196     -0.05880249233071      0.26082042661334
| 13>   C          -1.13116107484438      0.04412820239424      0.01078746760883
| 14>   O          -3.24343369143120      0.81289843577240      1.03343842785771
| 15>   C          -0.59584954853532     -0.90948874799449     -0.94336251561563
| 16>   C           0.75538550759268     -0.83462410764932     -1.30912656724823
| 17>   C           1.59425816999286      0.12918839465067     -0.74708960276067
| 18>   C          -0.24326071034836      0.95284754585047      0.67977417673203
| 19>   C           1.14000947137062      1.01341218538831      0.25381605844034
| 20>   N          -0.70692701622798      1.73127303959690      1.69732925263623
| 21>   C           0.14018885364750      2.63344427875872      2.24270609106856
| 22>   C           1.46478241373504      2.80837841647632      1.85305981671050
| 23>   C           1.99103566812257      1.97467368605570      0.85827118072156
| 24>   C          -3.22135778767975      2.18403332573394      0.75831202938009
| 25>   O          -2.85981410796624      2.60857875944338     -0.31885899085051
| 26>   N          -3.77118170756285      2.88457441193909      1.76867508469286
| 27>   C          -4.01739216676766      2.34054973551222      3.10122716309423
| 28>   C          -3.85614178422194      4.33588856571949      1.63797108291690
| 29>   H          -3.03912275475901      4.82472393180385      2.17902656732153
| 30>   H          -4.80521286201387      4.67869671077051      2.05377235762054
| 31>   H          -3.80218990846560      4.61222062841991      0.58893399034641
| 32>   H          -3.19177527611926      2.58491078536515      3.77774275594525
| 33>   H          -4.13168379828869      1.26244043505082      3.05922931469206
| 34>   H          -4.93478277180919      2.78007736411646      3.49646578467145
| 35>   H          -0.97832031104183     -2.64475422314052     -2.16906024094913
| 36>   H          -4.36927705816516     -1.12382015138147     -0.00524316965085
| 37>   H          -3.37527826990262     -2.84753317007491     -1.53236867161053
| 38>   H           1.14791602553857     -1.53837109182497     -2.03505883459005
| 39>   H           2.62847424415011      0.19409767985463     -1.07087169748062
| 40>   H          -0.27167344480305      3.22972593998189      3.05333190415085
| 41>   H           2.07910611496579      3.55422805880488      2.34568690624500
| 42>   H           3.02930262192065      2.03906735926010      0.55236325646103
| 43> *
| 44>
| 45>                          ****END OF INPUT****
 Total Charge           Charge          ....    0
 Multiplicity           Mult            ....    1
 Number of Electrons    NEL             ....  140
FINAL SINGLE POINT ENERGY      -878.303994948435
FINAL SINGLE POINT ENERGY      -878.304168939073
FINAL SINGLE POINT ENERGY      -878.304083294241
FINAL SINGLE POINT ENERGY      -878.304270111955
FINAL SINGLE POINT ENERGY      -878.304273831334
FINAL SINGLE POINT ENERGY      -878.304273632765
FINAL SINGLE POINT ENERGY      -878.304280456502
FINAL SINGLE POINT ENERGY      -878.304278664370
FINAL SINGLE POINT ENERGY      -878.304292951819
FINAL SINGLE POINT ENERGY      -878.304282641269
FINAL SINGLE POINT ENERGY      -878.304283288636
FINAL SINGLE POINT ENERGY      -878.304283988046
FINAL SINGLE POINT ENERGY      -878.304286480561
FINAL SINGLE POINT ENERGY      -878.304283923474
FINAL SINGLE POINT ENERGY      -878.304283720462
FINAL SINGLE POINT ENERGY      -878.304284738804
FINAL SINGLE POINT ENERGY      -878.304283712495
FINAL SINGLE POINT ENERGY      -878.304284895537
FINAL SINGLE POINT ENERGY      -878.304285324375
                    ***********************HURRAY********************

CARTESIAN COORDINATES (ANGSTROEM)
---------------------------------
  C     -3.302758   -1.102259   -0.236082
  C     -2.756979   -2.043749   -1.107194
  C     -1.425083   -1.919625   -1.474444
  C     -2.521505   -0.059644    0.281089
  C     -1.121232    0.041711    0.026868
  O     -3.222768    0.811078    1.061510
  C     -0.597939   -0.898446   -0.941169
  C      0.744081   -0.816714   -1.325267
  C      1.585697    0.143500   -0.769294
  C     -0.226144    0.940764    0.694139
  C      1.145358    1.012393    0.245593
  N     -0.668883    1.698360    1.732491
  C      0.183292    2.595572    2.272234
  C      1.494610    2.783982    1.856078
  C      2.003073    1.967302    0.843375
  C     -3.216723    2.172319    0.770046
  O     -2.851830    2.590191   -0.312157
  N     -3.768101    2.885479    1.764910
  C     -4.053290    2.357931    3.094761
  C     -3.876279    4.331844    1.615014
  H     -3.099638    4.838124    2.194632
  H     -4.851167    4.655526    1.980698
  H     -3.774552    4.600670    0.569016
  H     -3.260306    2.634862    3.794790
  H     -4.143435    1.278389    3.069968
  H     -4.992621    2.786080    3.445303
  H     -0.985679   -2.619395   -2.174247
  H     -4.352409   -1.121361    0.024118
  H     -3.372345   -2.833085   -1.515201
  H      1.125662   -1.512226   -2.061632
  H      2.612320    0.216485   -1.107706
  H     -0.209137    3.176841    3.100405
  H      2.112806    3.525709    2.344657
  H      3.032062    2.039220    0.517077

 Multiplicity           Mult            ....    1
 Number of Electrons    NEL             ....  140
 Basis Dimension        Dim             ....  564

ORBITAL ENERGIES
----------------

  NO   OCC          E(Eh)            E(eV)
   0   2.0000     -19.175220      -521.7843
   1   2.0000     -19.104696      -519.8652
   2   2.0000     -14.355642      -390.6369
   3   2.0000     -14.323194      -389.7539
   4   2.0000     -10.324900      -280.9548
   5   2.0000     -10.251145      -278.9478
   6   2.0000     -10.227698      -278.3098
   7   2.0000     -10.214668      -277.9553
   8   2.0000     -10.201904      -277.6079
   9   2.0000     -10.199544      -277.5437
  10   2.0000     -10.198902      -277.5262
  11   2.0000     -10.198686      -277.5203
  12   2.0000     -10.198490      -277.5150
  13   2.0000     -10.197752      -277.4949
  14   2.0000     -10.186543      -277.1899
  15   2.0000     -10.186100      -277.1779
  16   2.0000     -10.185234      -277.1543
  17   2.0000     -10.184795      -277.1423
  18   2.0000     -10.181738      -277.0592
  19   2.0000     -10.181133      -277.0427
  20   2.0000      -1.118187       -30.4274
  21   2.0000      -1.030187       -28.0328
  22   2.0000      -0.951946       -25.9038
  23   2.0000      -0.948778       -25.8176
  24   2.0000      -0.878271       -23.8990
  25   2.0000      -0.836559       -22.7639
  26   2.0000      -0.807541       -21.9743
  27   2.0000      -0.783230       -21.3128
  28   2.0000      -0.752706       -20.4822
  29   2.0000      -0.742756       -20.2114
  30   2.0000      -0.722957       -19.6727
  31   2.0000      -0.707465       -19.2511
  32   2.0000      -0.660661       -17.9775
  33   2.0000      -0.649326       -17.6691
  34   2.0000      -0.627976       -17.0881
  35   2.0000      -0.623337       -16.9619
  36   2.0000      -0.572858       -15.5883
  37   2.0000      -0.548405       -14.9229
  38   2.0000      -0.539356       -14.6766
  39   2.0000      -0.531421       -14.4607
  40   2.0000      -0.512874       -13.9560
  41   2.0000      -0.500371       -13.6158
  42   2.0000      -0.492816       -13.4102
  43   2.0000      -0.484362       -13.1802
  44   2.0000      -0.481378       -13.0990
  45   2.0000      -0.465656       -12.6711
  46   2.0000      -0.446282       -12.1440
  47   2.0000      -0.445195       -12.1144
  48   2.0000      -0.438952       -11.9445
  49   2.0000      -0.429876       -11.6975
  50   2.0000      -0.423647       -11.5280
  51   2.0000      -0.411985       -11.2107
  52   2.0000      -0.409333       -11.1385
  53   2.0000      -0.406651       -11.0655
  54   2.0000      -0.405129       -11.0241
  55   2.0000      -0.402474       -10.9519
  56   2.0000      -0.387432       -10.5426
  57   2.0000      -0.386330       -10.5126
  58   2.0000      -0.376921       -10.2565
  59   2.0000      -0.366613        -9.9760
  60   2.0000      -0.355680        -9.6785
  61   2.0000      -0.340416        -9.2632
  62   2.0000      -0.322922        -8.7872
  63   2.0000      -0.308801        -8.4029
  64   2.0000      -0.293055        -7.9744
  65   2.0000      -0.279094        -7.5945
  66   2.0000      -0.269643        -7.3373
  67   2.0000      -0.255170        -6.9435
  68   2.0000      -0.246844        -6.7170
  69   2.0000      -0.221147        -6.0177
  70   0.0000      -0.071819        -1.9543
  71   0.0000      -0.058633        -1.5955
  72   0.0000      -0.017799        -0.4843
  73   0.0000       0.008965         0.2439
  74   0.0000       0.032659         0.8887

----------------------------------------------------------------------------------------------------
                     ABSORPTION SPECTRUM VIA TRANSITION ELECTRIC DIPOLE MOMENTS
----------------------------------------------------------------------------------------------------
     Transition      Energy     Energy  Wavelength fosc(D2)      D2        DX        DY        DZ
                      (eV)      (cm-1)    (nm)                 (au**2)    (au)      (au)      (au)
----------------------------------------------------------------------------------------------------
  0-1A  ->  1-1A    3.476054   28036.3   356.7   0.288920370   3.39261   1.41202   1.04453   0.55478
  0-1A  ->  2-1A    3.897587   31436.2   318.1   0.203609188   2.13228  -0.39647  -1.14581  -0.81375
  0-1A  ->  3-1A    4.250538   34282.9   291.7   0.039975554   0.38388   0.27795  -0.47512  -0.28439

MULLIKEN ATOMIC CHARGES
-----------------------
   0 C :   -0.148030
   1 C :   -0.119115
   2 C :   -0.137152
   3 C :    0.173441
   4 C :    0.147294
   5 O :   -0.443021
   6 C :    0.198171
   7 C :   -0.204336
   8 C :   -0.225696
   9 C :    0.188662
  10 C :    0.289610
  11 N :   -0.570641
  12 C :    0.039437
  13 C :   -0.084909
  14 C :   -0.287084
  15 C :    0.715075
  16 O :   -0.611334
  17 N :   -0.216275
  18 C :   -0.261887
  19 C :   -0.246784
  20 H :    0.137127
  21 H :    0.142706
  22 H :    0.146093
  23 H :    0.136141
  24 H :    0.154851
  25 H :    0.143226
  26 H :    0.130331
  27 H :    0.128876
  28 H :    0.122091
  29 H :    0.118207
  30 H :    0.113537
  31 H :    0.111301
  32 H :    0.108399
  33 H :    0.111686
Sum of atomic charges:    0.0000000

LOEWDIN ATOMIC CHARGES
----------------------
   0 C :   -0.071396
   1 C :   -0.125580
   2 C :   -0.030273
   3 C :   -0.093438
   4 C :   -0.048092
   5 O :    0.204395
   6 C :   -0.097505
   7 C :   -0.073515
   8 C :   -0.068891
   9 C :   -0.091705
  10 C :   -0.097423
  11 N :    0.010043
  12 C :   -0.188175
  13 C :   -0.167493
  14 C :   -0.133256
  15 C :   -0.345929
  16 O :   -0.077274
  17 N :    0.084775
  18 C :   -0.219833
  19 C :   -0.213685
  20 H :    0.113420
  21 H :    0.116418
  22 H :    0.119302
  23 H :    0.112788
  24 H :    0.118868
  25 H :    0.116773
  26 H :    0.152458
  27 H :    0.150666
  28 H :    0.145916
  29 H :    0.149109
  30 H :    0.146610
  31 H :    0.127448
  32 H :    0.137528
  33 H :    0.136946

  Mayer bond orders larger than 0.100000
B(  0-C ,  1-C ) :   1.2735 B(  0-C ,  3-C ) :   1.3404 B(  0-C , 27-H ) :   0.9930
B(  1-C ,  2-C ) :   1.3136 B(  1-C , 28-H ) :   0.9945 B(  2-C ,  6-C ) :   1.2093
B(  2-C , 26-H ) :   0.9865 B(  3-C ,  4-C ) :   1.1746 B(  3-C ,  5-O ) :   0.9427
B(  4-C ,  6-C ) :   1.2112 B(  4-C ,  9-C ) :   1.1095 B(  5-O , 15-C ) :   0.9523
B(  6-C ,  7-C ) :   1.2874 B(  7-C ,  8-C ) :   1.2436 B(  7-C , 29-H ) :   0.9991
B(  8-C , 10-C ) :   1.2349 B(  8-C , 30-H ) :   1.0072 B(  9-C , 10-C ) :   1.2311
B(  9-C , 11-N ) :   1.3597 B( 10-C , 14-C ) :   1.2422 B( 11-N , 12-C ) :   1.3693
B( 12-C , 13-C ) :   1.4094 B( 12-C , 31-H ) :   0.9756 B( 13-C , 14-C ) :   1.2966
B( 13-C , 32-H ) :   0.9724 B( 14-C , 33-H ) :   0.9805 B( 15-C , 16-O ) :   1.8057
B( 15-C , 17-N ) :   1.3555 B( 17-N , 18-C ) :   0.9450 B( 17-N , 19-C ) :   0.9399
B( 18-C , 23-H ) :   0.9561 B( 18-C , 24-H ) :   0.9609 B( 18-C , 25-H ) :   0.9626
B( 19-C , 20-H ) :   0.9597 B( 19-C , 21-H ) :   0.9609 B( 19-C , 22-H ) :   0.9630

FINAL SINGLE POINT ENERGY      -878.304283986785

DIPOLE MOMENT
-------------

Method             : TDA/CIS
Type of density    : Electron Density
Level              : Relaxed density
State              :   1
Multiplicity       :   1
Irrep              :   0
Energy             :     0.0000000000000000 Eh
Relativity type    :
Basis              : AO
                                X                 Y                 Z
Electronic contribution:      3.549553424      -7.648525017      -5.837150107
Nuclear contribution   :     -4.218033544       6.614810326       6.137617819
                        -----------------------------------------
Total Dipole Moment    :     -0.668480120      -1.033714691       0.300467712
                        -----------------------------------------
Magnitude (a.u.)       :      1.267167147
Magnitude (Debye)      :      3.220882921

VIBRATIONAL FREQUENCIES
-----------------------

Scaling factor for frequencies =  1.000000000  (already applied!)

     0:       0.00 cm**-1
     1:       0.00 cm**-1
     2:       0.00 cm**-1
     3:       0.00 cm**-1
     4:       0.00 cm**-1
     5:       0.00 cm**-1
     6:      14.02 cm**-1
     7:      40.92 cm**-1
     8:      60.78 cm**-1
     9:      85.95 cm**-1
    10:      90.13 cm**-1
    11:      98.16 cm**-1
    12:     119.75 cm**-1
    13:     135.75 cm**-1
    14:     185.66 cm**-1
    15:     194.59 cm**-1
    16:     215.64 cm**-1
    17:     222.69 cm**-1
    18:     251.33 cm**-1
    19:     282.61 cm**-1
    20:     351.01 cm**-1
    21:     366.21 cm**-1
    22:     368.92 cm**-1
    23:     401.70 cm**-1
    24:     447.11 cm**-1
    25:     453.88 cm**-1
    26:     465.87 cm**-1
    27:     495.63 cm**-1
    28:     511.10 cm**-1
    29:     526.04 cm**-1
    30:     537.77 cm**-1
    31:     584.88 cm**-1
    32:     599.34 cm**-1
    33:     632.57 cm**-1
    34:     669.08 cm**-1
    35:     678.70 cm**-1
    36:     693.24 cm**-1
    37:     703.68 cm**-1
    38:     717.91 cm**-1
    39:     754.63 cm**-1
    40:     792.89 cm**-1
    41:     811.67 cm**-1
    42:     821.62 cm**-1
    43:     831.79 cm**-1
    44:     842.28 cm**-1
    45:     849.87 cm**-1
    46:     907.22 cm**-1
    47:     915.73 cm**-1
    48:     925.16 cm**-1
    49:     941.34 cm**-1
    50:     977.88 cm**-1
    51:    1001.09 cm**-1
    52:    1018.43 cm**-1
    53:    1071.05 cm**-1
    54:    1074.15 cm**-1
    55:    1082.18 cm**-1
    56:    1102.56 cm**-1
    57:    1117.65 cm**-1
    58:    1122.30 cm**-1
    59:    1128.02 cm**-1
    60:    1167.16 cm**-1
    61:    1170.43 cm**-1
    62:    1195.35 cm**-1
    63:    1206.11 cm**-1
    64:    1249.83 cm**-1
    65:    1253.15 cm**-1
    66:    1276.96 cm**-1
    67:    1279.21 cm**-1
    68:    1332.49 cm**-1
    69:    1369.15 cm**-1
    70:    1381.84 cm**-1
    71:    1407.08 cm**-1
    72:    1411.11 cm**-1
    73:    1427.62 cm**-1
    74:    1439.15 cm**-1
    75:    1447.86 cm**-1
    76:    1457.02 cm**-1
    77:    1463.63 cm**-1
    78:    1474.62 cm**-1
    79:    1483.53 cm**-1
    80:    1491.53 cm**-1
    81:    1501.00 cm**-1
    82:    1506.45 cm**-1
    83:    1521.08 cm**-1
    84:    1546.89 cm**-1
    85:    1547.67 cm**-1
    86:    1566.62 cm**-1
    87:    1719.38 cm**-1
    88:    3026.99 cm**-1
    89:    3031.67 cm**-1
    90:    3092.53 cm**-1
    91:    3094.32 cm**-1
    92:    3148.46 cm**-1
    93:    3166.30 cm**-1
    94:    3179.69 cm**-1
    95:    3186.48 cm**-1
    96:    3188.75 cm**-1
    97:    3188.92 cm**-1
    98:    3197.56 cm**-1
    99:    3208.29 cm**-1
   100:    3209.30 cm**-1
   101:    3221.38 cm**-1

IR SPECTRUM
-----------

 Mode   freq       eps      Int      T**2         TX        TY        TZ
       cm**-1   L/(mol*cm) km/mol    a.u.
----------------------------------------------------------------------------
  6:     14.02   0.001386    7.01  0.030860  (-0.130497  0.083036 -0.083282)
  7:     40.92   0.001000    5.06  0.007631  (-0.045958 -0.045872 -0.058431)
  8:     60.78   0.000119    0.60  0.000609  (-0.019476 -0.011679 -0.009642)
  9:     85.95   0.000140    0.71  0.000509  ( 0.014532  0.015272 -0.008021)
 10:     90.13   0.001798    9.09  0.006225  ( 0.021288 -0.049551  0.057587)
 11:     98.16   0.000422    2.13  0.001340  ( 0.023889  0.026033  0.009582)
 12:    119.75   0.000070    0.35  0.000182  ( 0.009972 -0.008572  0.003014)
 13:    135.75   0.000653    3.30  0.001501  ( 0.036444 -0.011113  0.007020)
 14:    185.66   0.000352    1.78  0.000592  (-0.012641  0.020200  0.004959)
 15:    194.59   0.001111    5.62  0.001782  (-0.005090 -0.018224  0.037741)
 16:    215.64   0.000244    1.23  0.000353  (-0.007644  0.009459 -0.014317)
 17:    222.69   0.001359    6.87  0.001905  (-0.031533  0.002581  0.030066)
 18:    251.33   0.000823    4.16  0.001022  ( 0.030899 -0.005911 -0.005645)
 19:    282.61   0.000227    1.15  0.000251  ( 0.001465  0.014651 -0.005857)
 20:    351.01   0.000484    2.45  0.000431  ( 0.015761 -0.012137 -0.005914)
 21:    366.21   0.004517   22.83  0.003849  (-0.024099  0.055866  0.012141)
 22:    368.92   0.000101    0.51  0.000085  ( 0.000924  0.006941 -0.006005)
 23:    401.70   0.001841    9.30  0.001430  (-0.014762  0.021573  0.027328)
 24:    447.11   0.001120    5.66  0.000782  ( 0.009752 -0.014536  0.021799)
 25:    453.88   0.000579    2.93  0.000398  (-0.018297  0.004211  0.006766)
 26:    465.87   0.000201    1.02  0.000135  (-0.000924  0.003952 -0.010884)
 27:    495.63   0.000116    0.58  0.000073  ( 0.000431  0.007898  0.003201)
 28:    511.10   0.001277    6.45  0.000780  (-0.007380 -0.026243 -0.006039)
 29:    526.04   0.000597    3.02  0.000354  ( 0.015397  0.002888  0.010429)
 30:    537.77   0.001215    6.14  0.000705  ( 0.016595  0.015824  0.013399)
 31:    584.88   0.000713    3.60  0.000381  (-0.019210  0.002968  0.001653)
 32:    599.34   0.004909   24.81  0.002556  ( 0.038259  0.032831 -0.003777)
 33:    632.57   0.007516   37.98  0.003708  ( 0.015247  0.032114  0.049437)
 34:    669.08   0.001057    5.34  0.000493  ( 0.000323  0.002008  0.022109)
 35:    678.70   0.021265  107.46  0.009778  ( 0.023433 -0.075254  0.059710)
 36:    693.24   0.001236    6.25  0.000556  (-0.004322  0.016215 -0.016576)
 37:    703.68   0.003708   18.74  0.001645  (-0.024073 -0.032018 -0.006316)
 38:    717.91   0.008850   44.73  0.003847  ( 0.054329  0.007525  0.028963)
 39:    754.63   0.001726    8.72  0.000714  (-0.004487 -0.004352 -0.025973)
 40:    792.89   0.005757   29.09  0.002266  ( 0.015691  0.002306  0.044882)
 41:    811.67   0.008054   40.70  0.003097  (-0.015519  0.028467 -0.045225)
 42:    821.62   0.004845   24.48  0.001840  ( 0.018174  0.032765 -0.020886)
 43:    831.79   0.002751   13.90  0.001032  (-0.004104  0.016679 -0.027151)
 44:    842.28   0.013367   67.55  0.004952  (-0.025548  0.065557 -0.001381)
 45:    849.87   0.001734    8.76  0.000637  ( 0.010880  0.006722  0.021750)
 46:    907.22   0.000645    3.26  0.000222  (-0.013600 -0.005485 -0.002621)
 47:    915.73   0.001122    5.67  0.000382  (-0.001454  0.019040 -0.004201)
 48:    925.16   0.000343    1.73  0.000116  ( 0.001354  0.005712 -0.009009)
 49:    941.34   0.001517    7.67  0.000503  (-0.002985  0.000549 -0.022220)
 50:    977.88   0.012927   65.33  0.004125  (-0.018397  0.059648 -0.015128)
 51:   1001.09   0.008220   41.54  0.002562  ( 0.030593 -0.036293 -0.017581)
 52:   1018.43   0.024337  122.99  0.007457  (-0.029006  0.078589  0.020970)
 53:   1071.05   0.013456   68.00  0.003921  (-0.020989  0.058735  0.005496)
 54:   1074.15   0.002110   10.66  0.000613  (-0.021348 -0.011540 -0.004901)
 55:   1082.18   0.031563  159.51  0.009102  (-0.002818  0.080785  0.050673)
 56:   1102.56   0.005777   29.19  0.001635  ( 0.040240  0.001982  0.003436)
 57:   1117.65   0.163914  828.35  0.045767  ( 0.098082 -0.172252 -0.080475)
 58:   1122.30   0.003745   18.93  0.001041  ( 0.015167 -0.017337 -0.022599)
 59:   1128.02   0.005849   29.56  0.001618  ( 0.022160 -0.032615 -0.007965)
 60:   1167.16   0.001621    8.19  0.000433  ( 0.009582 -0.017542 -0.005827)
 61:   1170.43   0.001199    6.06  0.000320  (-0.006609 -0.013740  0.009340)
 62:   1195.35   0.021414  108.22  0.005590  ( 0.037285 -0.062379 -0.017582)
 63:   1206.11   0.005515   27.87  0.001427  ( 0.034967  0.014179 -0.001770)
 64:   1249.83   0.022584  114.13  0.005639  (-0.040241  0.061294  0.016200)
 65:   1253.15   0.006289   31.78  0.001566  (-0.022442  0.032576  0.001070)
 66:   1276.96   0.002009   10.15  0.000491  ( 0.012459 -0.003988 -0.017884)
 67:   1279.21   0.002286   11.55  0.000558  (-0.016910 -0.015876 -0.004436)
 68:   1332.49   0.018675   94.38  0.004374  (-0.032757  0.048845  0.030245)
 69:   1369.15   0.009548   48.25  0.002176  (-0.028057 -0.031628 -0.019719)
 70:   1381.84   0.000235    1.19  0.000053  (-0.002813  0.003145 -0.005934)
 71:   1407.08   0.027724  140.10  0.006149  (-0.033172  0.062610  0.033587)
 72:   1411.11   0.014392   72.73  0.003183  ( 0.033675 -0.038453 -0.023877)
 73:   1427.62   0.002537   12.82  0.000555  (-0.013926  0.014874  0.011810)
 74:   1439.15   0.003083   15.58  0.000668  (-0.008216  0.000514  0.024509)
 75:   1447.86   0.000986    4.98  0.000212  (-0.013121  0.002510 -0.005830)
 76:   1457.02   0.005751   29.06  0.001232  (-0.025505  0.021290 -0.011315)
 77:   1463.63   0.007073   35.74  0.001508  (-0.015748 -0.005916  0.035000)
 78:   1474.62   0.000364    1.84  0.000077  (-0.004504 -0.003524  0.006655)
 79:   1483.53   0.006753   34.13  0.001421  (-0.036330 -0.009024  0.004385)
 80:   1491.53   0.003205   16.20  0.000671  ( 0.008215  0.018484 -0.016167)
 81:   1501.00   0.003187   16.11  0.000663  ( 0.022477  0.006259 -0.010873)
 82:   1506.45   0.000780    3.94  0.000162  (-0.003705  0.004042 -0.011466)
 83:   1521.08   0.016779   84.79  0.003442  (-0.022053  0.052031  0.015773)
 84:   1546.89   0.004640   23.45  0.000936  (-0.024621  0.001688  0.018083)
 85:   1547.67   0.003841   19.41  0.000774  ( 0.021508  0.016852  0.005283)
 86:   1566.62   0.003483   17.60  0.000694  ( 0.008314 -0.017230 -0.018105)
 87:   1719.38   0.195884  989.92  0.035553  ( 0.066176 -0.006899 -0.176425)
 88:   3026.99   0.007443   37.61  0.000767  (-0.001245  0.015789 -0.022726)
 89:   3031.67   0.019285   97.46  0.001985  ( 0.003180  0.030289  0.032520)
 90:   3092.53   0.013791   69.70  0.001392  ( 0.037045 -0.004252 -0.001126)
 91:   3094.32   0.000336    1.70  0.000034  (-0.004824 -0.000205  0.003247)
 92:   3148.46   0.004766   24.09  0.000472  (-0.004296  0.013340  0.016614)
 93:   3166.30   0.000948    4.79  0.000093  (-0.000555 -0.003301  0.009070)
 94:   3179.69   0.001421    7.18  0.000139  (-0.001549  0.011672  0.000931)
 95:   3186.48   0.000753    3.81  0.000074  (-0.005081  0.003639  0.005891)
 96:   3188.75   0.000707    3.57  0.000069  ( 0.008061  0.002003 -0.000461)
 97:   3188.92   0.005582   28.21  0.000546  ( 0.007593 -0.014309 -0.016848)
 98:   3197.56   0.000522    2.64  0.000051  (-0.006449 -0.003049 -0.000238)
 99:   3208.29   0.002527   12.77  0.000246  ( 0.003810  0.012802  0.008210)
100:   3209.30   0.002476   12.51  0.000241  (-0.013522  0.003159  0.006921)
101:   3221.38   0.001885    9.53  0.000183  ( 0.009824  0.008712  0.003200)

--------------------------
THERMOCHEMISTRY AT 298.15K
--------------------------

Temperature         ...   298.15 K
Pressure            ...     1.00 atm
Total Mass          ...   266.30 AMU
Quasi RRHO          ...     True
Cut-Off Frequency   ...     1.00 cm^-1

Throughout the following assumptions are being made:
  (1) The electronic state is orbitally nondegenerate
  (2) There are no thermally accessible electronically excited states
  (3) Hindered rotations indicated by low frequency modes are not
      treated as such but are treated as vibrations and this may
      cause some error
  (4) All equations used are the standard statistical mechanics
      equations for an ideal gas
  (5) All vibrations are strictly harmonic

freq.      14.02  E(vib)   ...       0.57
freq.      40.92  E(vib)   ...       0.54
freq.      60.78  E(vib)   ...       0.51
freq.      85.95  E(vib)   ...       0.48
freq.      90.13  E(vib)   ...       0.47
freq.      98.16  E(vib)   ...       0.46
freq.     119.75  E(vib)   ...       0.44
freq.     135.75  E(vib)   ...       0.42
freq.     185.66  E(vib)   ...       0.37
freq.     194.59  E(vib)   ...       0.36
freq.     215.64  E(vib)   ...       0.34
freq.     222.69  E(vib)   ...       0.33
freq.     251.33  E(vib)   ...       0.30
freq.     282.61  E(vib)   ...       0.28
freq.     351.01  E(vib)   ...       0.23
freq.     366.21  E(vib)   ...       0.22
freq.     368.92  E(vib)   ...       0.21
freq.     401.70  E(vib)   ...       0.19
freq.     447.11  E(vib)   ...       0.17
freq.     453.88  E(vib)   ...       0.16
freq.     465.87  E(vib)   ...       0.16
freq.     495.63  E(vib)   ...       0.14
freq.     511.10  E(vib)   ...       0.14
freq.     526.04  E(vib)   ...       0.13
freq.     537.77  E(vib)   ...       0.12
freq.     584.88  E(vib)   ...       0.11
freq.     599.34  E(vib)   ...       0.10
freq.     632.57  E(vib)   ...       0.09
freq.     669.08  E(vib)   ...       0.08
freq.     678.70  E(vib)   ...       0.08
freq.     693.24  E(vib)   ...       0.07
freq.     703.68  E(vib)   ...       0.07
freq.     717.91  E(vib)   ...       0.07
freq.     754.63  E(vib)   ...       0.06
freq.     792.89  E(vib)   ...       0.05
freq.     811.67  E(vib)   ...       0.05
freq.     821.62  E(vib)   ...       0.05
freq.     831.79  E(vib)   ...       0.04
freq.     842.28  E(vib)   ...       0.04
freq.     849.87  E(vib)   ...       0.04
freq.     907.22  E(vib)   ...       0.03
freq.     915.73  E(vib)   ...       0.03
freq.     925.16  E(vib)   ...       0.03
freq.     941.34  E(vib)   ...       0.03
freq.     977.88  E(vib)   ...       0.03
freq.    1001.09  E(vib)   ...       0.02
freq.    1018.43  E(vib)   ...       0.02
freq.    1071.05  E(vib)   ...       0.02
freq.    1074.15  E(vib)   ...       0.02
freq.    1082.18  E(vib)   ...       0.02
freq.    1102.56  E(vib)   ...       0.02
freq.    1117.65  E(vib)   ...       0.01
freq.    1122.30  E(vib)   ...       0.01
freq.    1128.02  E(vib)   ...       0.01
freq.    1167.16  E(vib)   ...       0.01
freq.    1170.43  E(vib)   ...       0.01
freq.    1195.35  E(vib)   ...       0.01
freq.    1206.11  E(vib)   ...       0.01
freq.    1249.83  E(vib)   ...       0.01
freq.    1253.15  E(vib)   ...       0.01
freq.    1276.96  E(vib)   ...       0.01
freq.    1279.21  E(vib)   ...       0.01
freq.    1332.49  E(vib)   ...       0.01
freq.    1369.15  E(vib)   ...       0.01
freq.    1381.84  E(vib)   ...       0.01
freq.    1407.08  E(vib)   ...       0.00
freq.    1411.11  E(vib)   ...       0.00
freq.    1427.62  E(vib)   ...       0.00
freq.    1439.15  E(vib)   ...       0.00
freq.    1447.86  E(vib)   ...       0.00
freq.    1457.02  E(vib)   ...       0.00
freq.    1463.63  E(vib)   ...       0.00
freq.    1474.62  E(vib)   ...       0.00
freq.    1483.53  E(vib)   ...       0.00
freq.    1491.53  E(vib)   ...       0.00
freq.    1501.00  E(vib)   ...       0.00
freq.    1506.45  E(vib)   ...       0.00
freq.    1521.08  E(vib)   ...       0.00
freq.    1546.89  E(vib)   ...       0.00
freq.    1547.67  E(vib)   ...       0.00
freq.    1566.62  E(vib)   ...       0.00
freq.    1719.38  E(vib)   ...       0.00
freq.    3026.99  E(vib)   ...       0.00
freq.    3031.67  E(vib)   ...       0.00
freq.    3092.53  E(vib)   ...       0.00
freq.    3094.32  E(vib)   ...       0.00
freq.    3148.46  E(vib)   ...       0.00
freq.    3166.30  E(vib)   ...       0.00
freq.    3179.69  E(vib)   ...       0.00
freq.    3186.48  E(vib)   ...       0.00
freq.    3188.75  E(vib)   ...       0.00
freq.    3188.92  E(vib)   ...       0.00
freq.    3197.56  E(vib)   ...       0.00
freq.    3208.29  E(vib)   ...       0.00
freq.    3209.30  E(vib)   ...       0.00
freq.    3221.38  E(vib)   ...       0.00

------------
INNER ENERGY
------------

The inner energy is: U= E(el) + E(ZPE) + E(vib) + E(rot) + E(trans)
    E(el)   - is the total energy from the electronic structure calculation
              = E(kin-el) + E(nuc-el) + E(el-el) + E(nuc-nuc)
    E(ZPE)  - the the zero temperature vibrational energy from the frequency calculation
    E(vib)  - the the finite temperature correction to E(ZPE) due to population
              of excited vibrational states
    E(rot)  - is the rotational thermal energy
    E(trans)- is the translational thermal energy

Summary of contributions to the inner energy U:
Electronic energy                ...   -878.30428387 Eh
Zero point energy                ...      0.26364484 Eh     165.44 kcal/mol
Thermal vibrational correction   ...      0.01461525 Eh       9.17 kcal/mol
Thermal rotational correction    ...      0.00141627 Eh       0.89 kcal/mol
Thermal translational correction ...      0.00141627 Eh       0.89 kcal/mol
-----------------------------------------------------------------------
Total thermal energy                   -878.02319124 Eh

Summary of corrections to the electronic energy:
(perhaps to be used in another calculation)
Total thermal correction                  0.01744779 Eh      10.95 kcal/mol
Non-thermal (ZPE) correction              0.26364484 Eh     165.44 kcal/mol
-----------------------------------------------------------------------
Total correction                          0.28109263 Eh     176.39 kcal/mol

--------
ENTHALPY
--------

The enthalpy is H = U + kB*T
                kB is Boltzmann's constant
Total thermal energy              ...   -878.02319124 Eh
Thermal Enthalpy correction       ...      0.00094421 Eh       0.59 kcal/mol
-----------------------------------------------------------------------
Total Enthalpy                    ...   -878.02224703 Eh

Note: Only C1 symmetry has been detected, increase convergence thresholds
      if your molecule has a higher symmetry. Symmetry factor of 1.0 is

Rotational constants in cm-1:     0.015906     0.011658     0.007451

                             ****ORCA TERMINATED NORMALLY****
TOTAL RUN TIME: 2 days 6 hours 34 minutes 42 seconds 364 msec
