                         Program Version 5.0.4 -  RELEASE  -
|  1> ! B3LYP/G OPT Def2-TZVP(-f) Def2-TZVP/C Def2/J RIJCOSX TightSCF CPCM(Water) AllPop SOSCF
|  2> %maxcore 3000
|  3>
|  4> * xyz 0 1
|  5>    C       -3.69720       -0.60578        0.13683
|  6>    C       -3.67674       -1.97528        0.09112
|  7>    C       -2.45486       -2.66049        0.04319
|  8>    C       -1.23739       -1.98859        0.03914
|  9>    C       -1.19162       -0.55526        0.08420
| 10>    C       -2.48970        0.17900        0.13719
| 11>    O       -2.53253        1.40218        0.18070
| 12>    C        0.02749        0.08265        0.07706
| 13>    C        1.25971       -0.66230        0.02668
| 14>    C        1.17702       -2.08862       -0.01657
| 15>    C       -0.01664       -2.71554       -0.01059
| 16>    N        0.14882        1.45773        0.11687
| 17>    C        1.33128        2.09795        0.11156
| 18>    C        2.50436        1.41744        0.06554
| 19>    C        2.46659        0.00968        0.02187
| 20>    H       -0.70002        1.97700        0.15198
| 21>    H       -4.62154       -0.06036        0.17499
| 22>    H       -4.59418       -2.53225        0.09234
| 23>    H       -2.45166       -3.73348        0.00832
| 24>    H       -0.06195       -3.78839       -0.04396
| 25>    H        2.09170       -2.64927       -0.05425
| 26>    H        3.37908       -0.55382       -0.01548
| 27>    H        1.28063        3.16808        0.14606
| 28>    H        3.43201        1.95305        0.06249
| 29> *
| 30>
| 31>
| 32>
| 33>                          ****END OF INPUT****
 Total Charge           Charge          ....    0
 Multiplicity           Mult            ....    1
 Number of Electrons    NEL             ....  102
FINAL SINGLE POINT ENERGY      -631.021456133313
FINAL SINGLE POINT ENERGY      -631.028589970859
FINAL SINGLE POINT ENERGY      -631.031222832217
FINAL SINGLE POINT ENERGY      -631.031643733048
FINAL SINGLE POINT ENERGY      -631.031749388846
FINAL SINGLE POINT ENERGY      -631.031811386033
FINAL SINGLE POINT ENERGY      -631.031840737239
FINAL SINGLE POINT ENERGY      -631.031846005735
                    ***********************HURRAY********************

CARTESIAN COORDINATES (ANGSTROEM)
---------------------------------
  C     -3.639568   -0.546182    0.137391
  C     -3.649264   -1.933065    0.092915
  C     -2.472975   -2.675198    0.044045
  C     -1.242126   -2.011555    0.038333
  C     -1.208949   -0.587116    0.082883
  C     -2.430533    0.190751    0.134643
  O     -2.408143    1.482100    0.176227
  C      0.061301    0.046804    0.074755
  C      1.277666   -0.682541    0.025076
  C      1.202400   -2.111014   -0.018794
  C     -0.001472   -2.735365   -0.011993
  N      0.120955    1.405234    0.116534
  C      1.265687    2.091712    0.113696
  C      2.476144    1.424192    0.066578
  C      2.476764    0.035783    0.022351
  H     -0.855425    1.822999    0.151769
  H     -4.569002    0.009300    0.175754
  H     -4.601673   -2.451182    0.096905
  H     -2.500061   -3.756678    0.010210
  H     -0.049838   -3.817393   -0.045463
  H      2.124810   -2.676621   -0.057004
  H      3.414694   -0.504795   -0.014544
  H      1.183093    3.168495    0.150008
  H      3.398176    1.986665    0.065005

 Multiplicity           Mult            ....    1
 Number of Electrons    NEL             ....  102
 Basis Dimension        Dim             ....  414

ORBITAL ENERGIES
----------------

  NO   OCC          E(Eh)            E(eV)
   0   2.0000     -19.080754      -519.2137
   1   2.0000     -14.389291      -391.5525
   2   2.0000     -10.246020      -278.8084
   3   2.0000     -10.243678      -278.7447
   4   2.0000     -10.230346      -278.3819
   5   2.0000     -10.210636      -277.8455
   6   2.0000     -10.209107      -277.8039
   7   2.0000     -10.198113      -277.5048
   8   2.0000     -10.192972      -277.3649
   9   2.0000     -10.187965      -277.2286
  10   2.0000     -10.187011      -277.2027
  11   2.0000     -10.184007      -277.1209
  12   2.0000     -10.176899      -276.9275
  13   2.0000     -10.163499      -276.5629
  14   2.0000     -10.159695      -276.4594
  15   2.0000      -1.017004       -27.6741
  16   2.0000      -0.986952       -26.8563
  17   2.0000      -0.879218       -23.9247
  18   2.0000      -0.843500       -22.9528
  19   2.0000      -0.819811       -22.3082
  20   2.0000      -0.782762       -21.3000
  21   2.0000      -0.750910       -20.4333
  22   2.0000      -0.721049       -19.6208
  23   2.0000      -0.671028       -18.2596
  24   2.0000      -0.662532       -18.0284
  25   2.0000      -0.640879       -17.4392
  26   2.0000      -0.601399       -16.3649
  27   2.0000      -0.567210       -15.4346
  28   2.0000      -0.547447       -14.8968
  29   2.0000      -0.527817       -14.3626
  30   2.0000      -0.513775       -13.9805
  31   2.0000      -0.488941       -13.3048
  32   2.0000      -0.483285       -13.1509
  33   2.0000      -0.466343       -12.6898
  34   2.0000      -0.458045       -12.4640
  35   2.0000      -0.444929       -12.1071
  36   2.0000      -0.434601       -11.8261
  37   2.0000      -0.422769       -11.5041
  38   2.0000      -0.407898       -11.0995
  39   2.0000      -0.398751       -10.8506
  40   2.0000      -0.392692       -10.6857
  41   2.0000      -0.380633       -10.3576
  42   2.0000      -0.366067        -9.9612
  43   2.0000      -0.357475        -9.7274
  44   2.0000      -0.355746        -9.6803
  45   2.0000      -0.328878        -8.9492
  46   2.0000      -0.316993        -8.6258
  47   2.0000      -0.272892        -7.4258
  48   2.0000      -0.250831        -6.8254
  49   2.0000      -0.250530        -6.8173
  50   2.0000      -0.197467        -5.3734
  51   0.0000      -0.082682        -2.2499
  52   0.0000      -0.051624        -1.4048
  53   0.0000      -0.018846        -0.5128
  54   0.0000       0.020298         0.5523
  55   0.0000       0.052679         1.4335

MULLIKEN ATOMIC CHARGES
-----------------------
   0 C :   -0.246705
   1 C :   -0.053960
   2 C :   -0.278183
   3 C :    0.292838
   4 C :    0.048501
   5 C :    0.298757
   6 O :   -0.728481
   7 C :    0.075232
   8 C :    0.290193
   9 C :   -0.248843
  10 C :   -0.249417
  11 N :   -0.248395
  12 C :    0.107536
  13 C :   -0.054479
  14 C :   -0.176614
  15 H :    0.236623
  16 H :    0.073114
  17 H :    0.104127
  18 H :    0.103301
  19 H :    0.108908
  20 H :    0.108499
  21 H :    0.135562
  22 H :    0.164182
  23 H :    0.137706
Sum of atomic charges:    0.0000000

LOEWDIN ATOMIC CHARGES
----------------------
   0 C :   -0.145113
   1 C :   -0.134590
   2 C :   -0.144638
   3 C :   -0.096480
   4 C :   -0.057296
   5 C :   -0.239276
   6 O :   -0.213639
   7 C :   -0.035566
   8 C :   -0.086689
   9 C :   -0.092916
  10 C :   -0.076608
  11 N :    0.192396
  12 C :   -0.077174
  13 C :   -0.120297
  14 C :   -0.035817
  15 H :    0.199182
  16 H :    0.132119
  17 H :    0.138980
  18 H :    0.137758
  19 H :    0.147405
  20 H :    0.147848
  21 H :    0.155365
  22 H :    0.153192
  23 H :    0.151855

  Mayer bond orders larger than 0.100000
B(  0-C ,  1-C ) :   1.4319 B(  0-C ,  5-C ) :   1.3995 B(  0-C , 16-H ) :   1.0062
B(  1-C ,  2-C ) :   1.3393 B(  1-C , 17-H ) :   0.9887 B(  2-C ,  3-C ) :   1.3221
B(  2-C , 18-H ) :   0.9933 B(  3-C ,  4-C ) :   1.2813 B(  3-C , 10-C ) :   1.1220
B(  4-C ,  5-C ) :   1.0186 B(  4-C ,  7-C ) :   1.0985 B(  5-C ,  6-O ) :   1.4588
B(  6-O , 15-H ) :   0.2328 B(  7-C ,  8-C ) :   1.3205 B(  7-C , 11-N ) :   1.2820
B(  8-C ,  9-C ) :   1.1218 B(  8-C , 14-C ) :   1.3445 B(  9-C , 10-C ) :   1.5339
B(  9-C , 20-H ) :   1.0175 B( 10-C , 19-H ) :   1.0108 B( 11-N , 12-C ) :   1.3194
B( 11-N , 15-H ) :   0.7384 B( 12-C , 13-C ) :   1.4153 B( 12-C , 22-H ) :   0.9480
B( 13-C , 14-C ) :   1.3904 B( 13-C , 23-H ) :   0.9647 B( 14-C , 21-H ) :   0.9619

FINAL SINGLE POINT ENERGY      -631.031847839476

DIPOLE MOMENT
-------------
                                X             Y             Z
Electronic contribution:      1.12682       2.21561       0.04420
Nuclear contribution   :      2.43038      -2.47139      -0.13090
                        -----------------------------------------
Total Dipole Moment    :      3.55720      -0.25578      -0.08669
                        -----------------------------------------
Magnitude (a.u.)       :      3.56744
Magnitude (Debye)      :      9.06771

Rotational constants in cm-1:     0.039794     0.018816     0.012775
Rotational constants in MHz :  1193.006885   564.084837   382.994882

                             ****ORCA TERMINATED NORMALLY****
TOTAL RUN TIME: 0 days 1 hours 0 minutes 4 seconds 22 msec
