                         Program Version 5.0.4 -  RELEASE  -
|  1> ! B3LYP/G FREQ Def2-TZVP(-f) Def2-TZVP/C Def2/J RIJCOSX TightSCF CPCM(Water) AllPop SOSCF
|  2>
|  3> * xyz 1 1
|  4>   C   -6.62301999317670     -1.49584103295711     -0.05519798972172
|  5>   C   -6.60644556476160     -2.60519172662372     -1.09170592408994
|  6>   C   -5.59573730000057     -3.66717552336526     -0.67811714750573
|  7>   H   -6.34213521744953     -2.18991032762246     -2.06785734751549
|  8>   H   -7.60680018119213     -3.03222289406620     -1.17459755603997
|  9>   C   -4.24750032428526     -3.05029991795190     -0.39354916200243
| 10>   H   -5.49251012222003     -4.43458599749307     -1.44682135893228
| 11>   H   -5.96125575907918     -4.17219488017461      0.22281528468842
| 12>   C   -4.16066480849092     -1.68551800969631      0.04702243672808
| 13>   N   -5.28872149687745     -0.93025670986178      0.15552311574889
| 14>   H   -7.02074542898765     -1.87324669849858      0.89561984593089
| 15>   H   -7.27188882632973     -0.68073266090711     -0.37673355917402
| 16>   C   -5.25114292212515      0.39790526162542      0.76887473369406
| 17>   C   -3.97000303513967      1.13224995265483      0.41691512969954
| 18>   H   -5.35166265624049      0.30715425516855      1.85807362345042
| 19>   H   -6.11980133394865      0.94756229754657      0.40696145441558
| 20>   C   -2.76067067470429      0.30373341050377      0.83379018165714
| 21>   H   -3.96033388177486      2.10145421707885      0.91720417905734
| 22>   H   -3.94565820028105      1.31693895243888     -0.66007814874377
| 23>   C   -2.89118007116006     -1.12313245107127      0.35855084148554
| 24>   H   -2.66255361420210      0.31916404972951      1.92475421408410
| 25>   H   -1.84405001409429      0.74225383400139      0.43895270440365
| 26>   C   -3.10114569393158     -3.78508845194142     -0.53605713854829
| 27>   C   -1.77506031910654     -1.92236106640704      0.20765473426142
| 28>   C   -1.82910466721931     -3.25282620172819     -0.24257285569023
| 29>   O   -0.55877140675285     -1.37070727665518      0.52206417384476
| 30>   C   0.64264493993655     -2.04080785251422      0.41215975281609
| 31>   C   -0.62581518722495     -3.96741126924846     -0.35993873540570
| 32>   C   0.59427366123082     -3.41292588303307     -0.04990539967367
| 33>   O   1.63772105814040     -1.40218264512949      0.70506709661920
| 34>   C   1.84848987641414     -4.16527433641261     -0.19530183569079
| 35>   C   2.95493674413115     -3.99836112167055      0.65487688548978
| 36>   C   1.98024712019211     -5.10747323091957     -1.20979277988403
| 37>   N   3.10702727622953     -5.82218812485805     -1.33689847575580
| 38>   C   4.17110012894551     -5.68063792013495     -0.53067116285364
| 39>   C   4.10736138560759     -4.75216537476703      0.48563513558834
| 40>   H   1.21494471001242     -5.30503557538317     -1.94483157774667
| 41>   H   4.95301750319886     -4.62791444587893      1.14608705321002
| 42>   H   5.02337642494360     -6.31079718110566     -0.73305562839487
| 43>   H   2.90333217662675     -3.27895065673391      1.45717206528797
| 44>   H   -3.16510863302078     -4.81191686889087     -0.87795060033314
| 45>   H   -0.68210584626832     -4.99897077263406     -0.68837790037045
| 46>   H   3.15929017443630     -6.49849114441189     -2.09285235808859
| 47> *
| 48>
| 49>
| 50>                          ****END OF INPUT****

CARTESIAN COORDINATES (ANGSTROEM)
---------------------------------
  C     -6.623020   -1.495841   -0.055198
  C     -6.606446   -2.605192   -1.091706
  C     -5.595737   -3.667176   -0.678117
  H     -6.342135   -2.189910   -2.067857
  H     -7.606800   -3.032223   -1.174598
  C     -4.247500   -3.050300   -0.393549
  H     -5.492510   -4.434586   -1.446821
  H     -5.961256   -4.172195    0.222815
  C     -4.160665   -1.685518    0.047022
  N     -5.288721   -0.930257    0.155523
  H     -7.020745   -1.873247    0.895620
  H     -7.271889   -0.680733   -0.376734
  C     -5.251143    0.397905    0.768875
  C     -3.970003    1.132250    0.416915
  H     -5.351663    0.307154    1.858074
  H     -6.119801    0.947562    0.406961
  C     -2.760671    0.303733    0.833790
  H     -3.960334    2.101454    0.917204
  H     -3.945658    1.316939   -0.660078
  C     -2.891180   -1.123132    0.358551
  H     -2.662554    0.319164    1.924754
  H     -1.844050    0.742254    0.438953
  C     -3.101146   -3.785088   -0.536057
  C     -1.775060   -1.922361    0.207655
  C     -1.829105   -3.252826   -0.242573
  O     -0.558771   -1.370707    0.522064
  C      0.642645   -2.040808    0.412160
  C     -0.625815   -3.967411   -0.359939
  C      0.594274   -3.412926   -0.049905
  O      1.637721   -1.402183    0.705067
  C      1.848490   -4.165274   -0.195302
  C      2.954937   -3.998361    0.654877
  C      1.980247   -5.107473   -1.209793
  N      3.107027   -5.822188   -1.336898
  C      4.171100   -5.680638   -0.530671
  C      4.107361   -4.752165    0.485635
  H      1.214945   -5.305036   -1.944832
  H      4.953018   -4.627914    1.146087
  H      5.023376   -6.310797   -0.733056
  H      2.903332   -3.278951    1.457172
  H     -3.165109   -4.811917   -0.877951
  H     -0.682106   -4.998971   -0.688378
  H      3.159290   -6.498491   -2.092852

 Total Charge           Charge          ....    1
 Multiplicity           Mult            ....    1
 Number of Electrons    NEL             ....  168
 Basis Dimension        Dim             ....  690

ORBITAL ENERGIES
----------------

  NO   OCC          E(Eh)            E(eV)
   0   2.0000     -19.201192      -522.4910
   1   2.0000     -19.119433      -520.2662
   2   2.0000     -14.437123      -392.8541
   3   2.0000     -14.352188      -390.5429
   4   2.0000     -10.316684      -280.7313
   5   2.0000     -10.264327      -279.3065
   6   2.0000     -10.261408      -279.2271
   7   2.0000     -10.253479      -279.0114
   8   2.0000     -10.236759      -278.5564
   9   2.0000     -10.235997      -278.5356
  10   2.0000     -10.225809      -278.2584
  11   2.0000     -10.217654      -278.0365
  12   2.0000     -10.214407      -277.9481
  13   2.0000     -10.207659      -277.7645
  14   2.0000     -10.205620      -277.7090
  15   2.0000     -10.205058      -277.6937
  16   2.0000     -10.191162      -277.3156
  17   2.0000     -10.187769      -277.2233
  18   2.0000     -10.187729      -277.2222
  19   2.0000     -10.185390      -277.1586
  20   2.0000     -10.176221      -276.9090
  21   2.0000     -10.174519      -276.8627
  22   2.0000     -10.171610      -276.7836
  23   2.0000     -10.171562      -276.7823
  24   2.0000      -1.128221       -30.7004
  25   2.0000      -1.042893       -28.3786
  26   2.0000      -1.039925       -28.2978
  27   2.0000      -0.973786       -26.4981
  28   2.0000      -0.882728       -24.0202
  29   2.0000      -0.868948       -23.6453
  30   2.0000      -0.841041       -22.8859
  31   2.0000      -0.831497       -22.6262
  32   2.0000      -0.815834       -22.2000
  33   2.0000      -0.780844       -21.2478
  34   2.0000      -0.771714       -20.9994
  35   2.0000      -0.765336       -20.8258
  36   2.0000      -0.707879       -19.2624
  37   2.0000      -0.697335       -18.9754
  38   2.0000      -0.694495       -18.8982
  39   2.0000      -0.673562       -18.3286
  40   2.0000      -0.662187       -18.0190
  41   2.0000      -0.641416       -17.4538
  42   2.0000      -0.637238       -17.3401
  43   2.0000      -0.620142       -16.8749
  44   2.0000      -0.601593       -16.3702
  45   2.0000      -0.567369       -15.4389
  46   2.0000      -0.552354       -15.0303
  47   2.0000      -0.540976       -14.7207
  48   2.0000      -0.529724       -14.4145
  49   2.0000      -0.528902       -14.3922
  50   2.0000      -0.520186       -14.1550
  51   2.0000      -0.501184       -13.6379
  52   2.0000      -0.488175       -13.2839
  53   2.0000      -0.486694       -13.2436
  54   2.0000      -0.477828       -13.0024
  55   2.0000      -0.477133       -12.9835
  56   2.0000      -0.472369       -12.8538
  57   2.0000      -0.468755       -12.7555
  58   2.0000      -0.458113       -12.4659
  59   2.0000      -0.448299       -12.1988
  60   2.0000      -0.445155       -12.1133
  61   2.0000      -0.438241       -11.9251
  62   2.0000      -0.432746       -11.7756
  63   2.0000      -0.424718       -11.5572
  64   2.0000      -0.414880       -11.2895
  65   2.0000      -0.412773       -11.2321
  66   2.0000      -0.407457       -11.0875
  67   2.0000      -0.405313       -11.0291
  68   2.0000      -0.400880       -10.9085
  69   2.0000      -0.383644       -10.4395
  70   2.0000      -0.370823       -10.0906
  71   2.0000      -0.368309       -10.0222
  72   2.0000      -0.361088        -9.8257
  73   2.0000      -0.349208        -9.5024
  74   2.0000      -0.344776        -9.3818
  75   2.0000      -0.340936        -9.2773
  76   2.0000      -0.339032        -9.2255
  77   2.0000      -0.327962        -8.9243
  78   2.0000      -0.322461        -8.7746
  79   2.0000      -0.313401        -8.5281
  80   2.0000      -0.297887        -8.1059
  81   2.0000      -0.271132        -7.3779
  82   2.0000      -0.245598        -6.6831
  83   2.0000      -0.200777        -5.4634
  84   0.0000      -0.091714        -2.4957
  85   0.0000      -0.082859        -2.2547
  86   0.0000      -0.049163        -1.3378
  87   0.0000      -0.015401        -0.4191
  88   0.0000      -0.003094        -0.0842

MULLIKEN ATOMIC CHARGES
-----------------------
   0 C :   -0.114972
   1 C :   -0.166376
   2 C :   -0.230263
   3 H :    0.104153
   4 H :    0.119346
   5 C :    0.240330
   6 H :    0.127917
   7 H :    0.112996
   8 C :    0.006992
   9 N :   -0.136116
  10 H :    0.111098
  11 H :    0.133478
  12 C :   -0.116680
  13 C :   -0.152021
  14 H :    0.111008
  15 H :    0.135030
  16 C :   -0.275968
  17 H :    0.119119
  18 H :    0.104439
  19 C :    0.101906
  20 H :    0.116033
  21 H :    0.127571
  22 C :   -0.543285
  23 C :    0.086753
  24 C :    0.448936
  25 O :   -0.372535
  26 C :    0.431866
  27 C :   -0.320706
  28 C :    0.170268
  29 O :   -0.566431
  30 C :    0.218253
  31 C :   -0.155206
  32 C :   -0.003811
  33 N :   -0.225436
  34 C :    0.101957
  35 C :   -0.034932
  36 H :    0.191878
  37 H :    0.152011
  38 H :    0.188283
  39 H :    0.151395
  40 H :    0.093239
  41 H :    0.140225
  42 H :    0.268255
Sum of atomic charges:    1.0000000

LOEWDIN ATOMIC CHARGES
----------------------
   0 C :   -0.186139
   1 C :   -0.217803
   2 C :   -0.185513
   3 H :    0.130060
   4 H :    0.132337
   5 C :   -0.102495
   6 H :    0.136879
   7 H :    0.138410
   8 C :   -0.062029
   9 N :    0.132622
  10 H :    0.126718
  11 H :    0.131405
  12 C :   -0.184460
  13 C :   -0.216383
  14 H :    0.127102
  15 H :    0.131706
  16 C :   -0.185970
  17 H :    0.132485
  18 H :    0.130633
  19 C :   -0.086401
  20 H :    0.138564
  21 H :    0.136278
  22 C :   -0.060050
  23 C :   -0.084698
  24 C :   -0.129727
  25 O :    0.222892
  26 C :   -0.248023
  27 C :   -0.006727
  28 C :   -0.103343
  29 O :   -0.066298
  30 C :   -0.075683
  31 C :   -0.008092
  32 C :   -0.009514
  33 N :    0.209321
  34 C :   -0.048564
  35 C :   -0.085659
  36 H :    0.164560
  37 H :    0.160634
  38 H :    0.161028
  39 H :    0.159373
  40 H :    0.151014
  41 H :    0.160447
  42 H :    0.239103

  Mayer bond orders larger than 0.100000
B(  0-C ,  1-C ) :   1.0045 B(  0-C ,  9-N ) :   0.9438 B(  0-C , 10-H ) :   0.9475
B(  0-C , 11-H ) :   0.9507 B(  1-C ,  2-C ) :   1.0202 B(  1-C ,  3-H ) :   0.9684
B(  1-C ,  4-H ) :   0.9601 B(  2-C ,  5-C ) :   0.9961 B(  2-C ,  6-H ) :   0.9552
B(  2-C ,  7-H ) :   0.9455 B(  5-C ,  8-C ) :   1.2290 B(  5-C , 22-C ) :   1.4066
B(  8-C ,  9-N ) :   1.3792 B(  8-C , 19-C ) :   1.2413 B(  9-N , 12-C ) :   0.9435
B( 12-C , 13-C ) :   0.9989 B( 12-C , 14-H ) :   0.9483 B( 12-C , 15-H ) :   0.9521
B( 13-C , 16-C ) :   1.0351 B( 13-C , 17-H ) :   0.9621 B( 13-C , 18-H ) :   0.9666
B( 16-C , 19-C ) :   1.0373 B( 16-C , 20-H ) :   0.9536 B( 16-C , 21-H ) :   0.9471
B( 19-C , 23-C ) :   1.3449 B( 22-C , 24-C ) :   1.0875 B( 22-C , 40-H ) :   1.0497
B( 23-C , 24-C ) :   1.3451 B( 23-C , 25-O ) :   1.0211 B( 24-C , 27-C ) :   1.1736
B( 25-O , 26-C ) :   1.1000 B( 26-C , 28-C ) :   1.1287 B( 26-C , 29-O ) :   1.9005
B( 27-C , 28-C ) :   1.3739 B( 27-C , 41-H ) :   0.9662 B( 28-C , 30-C ) :   0.9672
B( 30-C , 31-C ) :   1.3612 B( 30-C , 32-C ) :   1.4357 B( 31-C , 35-C ) :   1.4394
B( 31-C , 39-H ) :   0.9497 B( 32-C , 33-N ) :   1.3291 B( 32-C , 36-H ) :   0.9186
B( 33-N , 34-C ) :   1.2974 B( 33-N , 42-H ) :   0.8923 B( 34-C , 35-C ) :   1.4452
B( 34-C , 38-H ) :   0.9320 B( 35-C , 37-H ) :   0.9536

FINAL SINGLE POINT ENERGY     -1033.777851909916

DIPOLE MOMENT
-------------
                                X             Y             Z
Electronic contribution:     24.12965      -8.10226      -0.08279
Nuclear contribution   :    -21.22893       2.90820      -1.84842
                        -----------------------------------------
Total Dipole Moment    :      2.90072      -5.19406      -1.93121
                        -----------------------------------------
Magnitude (a.u.)       :      6.25476
Magnitude (Debye)      :     15.89834

VIBRATIONAL FREQUENCIES
-----------------------

Scaling factor for frequencies =  1.000000000  (already applied!)

   0:         0.00 cm**-1
   1:         0.00 cm**-1
   2:         0.00 cm**-1
   3:         0.00 cm**-1
   4:         0.00 cm**-1
   5:         0.00 cm**-1
   6:        29.53 cm**-1
   7:        45.86 cm**-1
   8:        66.10 cm**-1
   9:        73.34 cm**-1
  10:        82.60 cm**-1
  11:        94.08 cm**-1
  12:       130.49 cm**-1
  13:       156.23 cm**-1
  14:       175.88 cm**-1
  15:       188.38 cm**-1
  16:       223.41 cm**-1
  17:       272.47 cm**-1
  18:       276.71 cm**-1
  19:       310.81 cm**-1
  20:       316.31 cm**-1
  21:       341.56 cm**-1
  22:       364.58 cm**-1
  23:       397.21 cm**-1
  24:       404.43 cm**-1
  25:       409.36 cm**-1
  26:       438.91 cm**-1
  27:       443.22 cm**-1
  28:       462.34 cm**-1
  29:       477.11 cm**-1
  30:       527.51 cm**-1
  31:       530.47 cm**-1
  32:       541.65 cm**-1
  33:       560.32 cm**-1
  34:       599.23 cm**-1
  35:       620.39 cm**-1
  36:       638.67 cm**-1
  37:       644.88 cm**-1
  38:       680.67 cm**-1
  39:       687.22 cm**-1
  40:       706.29 cm**-1
  41:       732.20 cm**-1
  42:       771.55 cm**-1
  43:       779.69 cm**-1
  44:       796.84 cm**-1
  45:       807.84 cm**-1
  46:       857.22 cm**-1
  47:       862.42 cm**-1
  48:       871.53 cm**-1
  49:       880.73 cm**-1
  50:       895.23 cm**-1
  51:       899.06 cm**-1
  52:       911.63 cm**-1
  53:       919.49 cm**-1
  54:       947.22 cm**-1
  55:       951.91 cm**-1
  56:       977.80 cm**-1
  57:       991.91 cm**-1
  58:      1002.39 cm**-1
  59:      1025.59 cm**-1
  60:      1026.28 cm**-1
  61:      1044.47 cm**-1
  62:      1047.90 cm**-1
  63:      1056.13 cm**-1
  64:      1070.82 cm**-1
  65:      1094.95 cm**-1
  66:      1098.89 cm**-1
  67:      1106.92 cm**-1
  68:      1115.89 cm**-1
  69:      1135.21 cm**-1
  70:      1166.86 cm**-1
  71:      1187.69 cm**-1
  72:      1205.70 cm**-1
  73:      1206.29 cm**-1
  74:      1215.57 cm**-1
  75:      1226.99 cm**-1
  76:      1237.91 cm**-1
  77:      1240.84 cm**-1
  78:      1274.71 cm**-1
  79:      1298.11 cm**-1
  80:      1298.76 cm**-1
  81:      1306.25 cm**-1
  82:      1311.61 cm**-1
  83:      1336.03 cm**-1
  84:      1348.46 cm**-1
  85:      1355.59 cm**-1
  86:      1360.42 cm**-1
  87:      1369.81 cm**-1
  88:      1377.25 cm**-1
  89:      1379.54 cm**-1
  90:      1384.61 cm**-1
  91:      1391.81 cm**-1
  92:      1403.41 cm**-1
  93:      1451.19 cm**-1
  94:      1468.04 cm**-1
  95:      1473.46 cm**-1
  96:      1476.10 cm**-1
  97:      1482.81 cm**-1
  98:      1484.89 cm**-1
  99:      1493.91 cm**-1
 100:      1496.67 cm**-1
 101:      1504.16 cm**-1
 102:      1543.03 cm**-1
 103:      1575.65 cm**-1
 104:      1589.50 cm**-1
 105:      1606.67 cm**-1
 106:      1639.20 cm**-1
 107:      1641.32 cm**-1
 108:      1659.44 cm**-1
 109:      1701.97 cm**-1
 110:      2984.46 cm**-1
 111:      2985.79 cm**-1
 112:      3010.49 cm**-1
 113:      3012.60 cm**-1
 114:      3038.10 cm**-1
 115:      3040.41 cm**-1
 116:      3075.78 cm**-1
 117:      3079.33 cm**-1
 118:      3084.67 cm**-1
 119:      3087.57 cm**-1
 120:      3088.55 cm**-1
 121:      3090.05 cm**-1
 122:      3172.28 cm**-1
 123:      3178.71 cm**-1
 124:      3223.11 cm**-1
 125:      3240.76 cm**-1
 126:      3242.84 cm**-1
 127:      3248.25 cm**-1
 128:      3546.28 cm**-1

IR SPECTRUM
-----------

 Mode   freq       eps      Int      T**2         TX        TY        TZ
       cm**-1   L/(mol*cm) km/mol    a.u.
----------------------------------------------------------------------------
  6:     29.53   0.002111   10.67  0.022309  (-0.015861  0.064036 -0.134003)
  7:     45.86   0.001325    6.70  0.009019  (-0.084348 -0.028122  0.033373)
  8:     66.10   0.000643    3.25  0.003037  (-0.038974 -0.004449 -0.038711)
  9:     73.34   0.001122    5.67  0.004774  (-0.053472 -0.041222 -0.014684)
 10:     82.60   0.000292    1.48  0.001103  ( 0.003922  0.023765  0.022863)
 11:     94.08   0.000518    2.62  0.001717  ( 0.027124 -0.030052  0.008819)
 12:    130.49   0.002174   10.99  0.005199  ( 0.041889 -0.036388  0.046047)
 13:    156.23   0.003117   15.75  0.006227  ( 0.064335 -0.040800  0.020573)
 14:    175.88   0.000349    1.77  0.000620  (-0.023463  0.007812 -0.002900)
 15:    188.38   0.002104   10.63  0.003485  ( 0.055827 -0.019130 -0.001486)
 16:    223.41   0.001661    8.39  0.002320  ( 0.039924 -0.026761 -0.003083)
 17:    272.47   0.000202    1.02  0.000232  ( 0.005415  0.013834  0.003292)
 18:    276.71   0.004410   22.28  0.004973  ( 0.055410 -0.039522 -0.018466)
 19:    310.81   0.001840    9.30  0.001847  (-0.014445  0.032417 -0.024248)
 20:    316.31   0.002692   13.61  0.002656  (-0.045220  0.011811 -0.021723)
 21:    341.56   0.005072   25.63  0.004634  (-0.063373  0.024853 -0.000147)
 22:    364.58   0.000399    2.02  0.000342  ( 0.002962 -0.017929  0.003392)
 23:    397.21   0.000815    4.12  0.000640  (-0.023580  0.003601 -0.008428)
 24:    404.43   0.001472    7.44  0.001136  ( 0.018910 -0.024843  0.012697)
 25:    409.36   0.000100    0.51  0.000076  (-0.001611 -0.001821 -0.008391)
 26:    438.91   0.004986   25.20  0.003545  (-0.055523  0.019579 -0.008882)
 27:    443.22   0.014260   72.06  0.010040  ( 0.087309 -0.048315 -0.009104)
 28:    462.34   0.002665   13.47  0.001799  (-0.041555  0.004593 -0.007148)
 29:    477.11   0.008744   44.19  0.005719  (-0.074105  0.015087  0.000526)
 30:    527.51   0.002401   12.13  0.001420  ( 0.022274 -0.027119  0.013734)
 31:    530.47   0.001215    6.14  0.000715  (-0.026647 -0.001943 -0.000823)
 32:    541.65   0.003652   18.46  0.002104  (-0.031171 -0.011657  0.031567)
 33:    560.32   0.006221   31.44  0.003465  ( 0.058060  0.002023  0.009460)
 34:    599.23   0.006706   33.89  0.003492  ( 0.054400 -0.022838 -0.003372)
 35:    620.39   0.002416   12.21  0.001215  ( 0.025029  0.023809 -0.004693)
 36:    638.67   0.002110   10.66  0.001031  ( 0.032083 -0.000920  0.000901)
 37:    644.88   0.000099    0.50  0.000048  (-0.003743  0.000653 -0.005787)
 38:    680.67   0.016683   84.31  0.007648  ( 0.021459  0.065490 -0.053842)
 39:    687.22   0.010623   53.68  0.004824  ( 0.058118  0.030842 -0.022247)
 40:    706.29   0.002022   10.22  0.000894  (-0.029332  0.002535  0.005166)
 41:    732.20   0.002222   11.23  0.000947  (-0.007461 -0.029237  0.006048)
 42:    771.55   0.003589   18.14  0.001452  ( 0.020600 -0.022635  0.022694)
 43:    779.69   0.001489    7.52  0.000596  ( 0.000056  0.015483  0.018874)
 44:    796.84   0.001515    7.66  0.000593  (-0.005635 -0.005502  0.023052)
 45:    807.84   0.021306  107.67  0.008230  (-0.024185 -0.052006  0.070290)
 46:    857.22   0.000802    4.05  0.000292  ( 0.001251  0.016973 -0.001510)
 47:    862.42   0.000330    1.67  0.000119  (-0.006808 -0.000554  0.008527)
 48:    871.53   0.002060   10.41  0.000737  ( 0.025491 -0.005670  0.007450)
 49:    880.73   0.001439    7.27  0.000510  (-0.004571  0.021959  0.002607)
 50:    895.23   0.000807    4.08  0.000281  (-0.014018 -0.007476 -0.005377)
 51:    899.06   0.001152    5.82  0.000400  (-0.014766  0.000115 -0.013488)
 52:    911.63   0.002282   11.53  0.000781  (-0.016399 -0.013833  0.017912)
 53:    919.49   0.001532    7.74  0.000520  ( 0.018403  0.005374  0.012341)
 54:    947.22   0.001835    9.27  0.000604  (-0.005842  0.018389 -0.015238)
 55:    951.91   0.001488    7.52  0.000488  (-0.006144 -0.001307  0.021171)
 56:    977.80   0.005300   26.78  0.001691  (-0.020660  0.002819  0.035449)
 57:    991.91   0.000565    2.86  0.000178  ( 0.007065  0.003985 -0.010582)
 58:   1002.39   0.006629   33.50  0.002064  ( 0.039635 -0.022008  0.002910)
 59:   1025.59   0.000457    2.31  0.000139  (-0.011399 -0.003009  0.000030)
 60:   1026.28   0.000182    0.92  0.000055  ( 0.004297 -0.004359 -0.004242)
 61:   1044.47   0.003129   15.81  0.000935  (-0.019381  0.017955  0.015390)
 62:   1047.90   0.004080   20.62  0.001215  ( 0.031692 -0.014511  0.000117)
 63:   1056.13   0.003189   16.12  0.000942  (-0.026031 -0.014584 -0.007214)
 64:   1070.82   0.006295   31.81  0.001834  ( 0.035100 -0.023143 -0.008174)
 65:   1094.95   0.001147    5.80  0.000327  (-0.010045 -0.013281  0.007046)
 66:   1098.89   0.004823   24.37  0.001370  (-0.034595  0.003953 -0.012535)
 67:   1106.92   0.005349   27.03  0.001508  ( 0.032655 -0.020972  0.001328)
 68:   1115.89   0.024525  123.94  0.006858  (-0.074662  0.031869  0.016383)
 69:   1135.21   0.002575   13.01  0.000708  ( 0.019509  0.006896  0.016723)
 70:   1166.86   0.005708   28.85  0.001527  (-0.000312 -0.036140 -0.014847)
 71:   1187.69   0.061733  311.98  0.016220  (-0.125056  0.024093 -0.000960)
 72:   1205.70   0.041949  211.99  0.010858  (-0.095067  0.042170 -0.006431)
 73:   1206.29   0.028612  144.59  0.007402  ( 0.078581 -0.035024  0.000168)
 74:   1215.57   0.010669   53.91  0.002739  (-0.044817 -0.025590 -0.008686)
 75:   1226.99   0.013689   69.18  0.003482  (-0.058516  0.005944 -0.004696)
 76:   1237.91   0.095621  483.23  0.024105  (-0.143872  0.058314  0.002293)
 77:   1240.84   0.005383   27.20  0.001354  ( 0.036392  0.004825  0.002465)
 78:   1274.71   0.059148  298.91  0.014480  ( 0.107937 -0.052108 -0.010702)
 79:   1298.11   0.035572  179.77  0.008552  ( 0.088655 -0.026093  0.003313)
 80:   1298.76   0.002400   12.13  0.000577  (-0.017094  0.006070 -0.015734)
 81:   1306.25   0.032552  164.51  0.007777  (-0.082420  0.028708 -0.012635)
 82:   1311.61   0.290110  1466.10  0.069024  (-0.258949  0.042813 -0.011686)
 83:   1336.03   0.045378  229.32  0.010599  (-0.083429  0.058058  0.016367)
 84:   1348.46   0.064645  326.69  0.014960  ( 0.104654 -0.059743 -0.020945)
 85:   1355.59   0.000819    4.14  0.000188  (-0.001120 -0.013532  0.002020)
 86:   1360.42   0.006935   35.05  0.001591  ( 0.039756 -0.001442  0.002875)
 87:   1369.81   0.017233   87.09  0.003926  ( 0.048512 -0.037371 -0.013264)
 88:   1377.25   0.004513   22.81  0.001023  ( 0.015026 -0.026059 -0.010852)
 89:   1379.54   0.011474   57.98  0.002595  ( 0.024725 -0.041973 -0.014915)
 90:   1384.61   0.004369   22.08  0.000985  ( 0.003551 -0.030642 -0.005761)
 91:   1391.81   0.013818   69.83  0.003098  (-0.054900  0.008834 -0.002452)
 92:   1403.41   0.016926   85.54  0.003764  ( 0.042253 -0.042906 -0.011726)
 93:   1451.19   0.003461   17.49  0.000744  (-0.026601 -0.004583 -0.003963)
 94:   1468.04   0.050960  257.53  0.010833  ( 0.094475 -0.043150 -0.006712)
 95:   1473.46   0.000455    2.30  0.000096  (-0.009055 -0.000177 -0.003783)
 96:   1476.10   0.040919  206.79  0.008651  (-0.075038  0.054259 -0.008711)
 97:   1482.81   0.000484    2.44  0.000102  ( 0.003987  0.009215 -0.000978)
 98:   1484.89   0.012152   61.41  0.002554  (-0.038223  0.027430  0.018454)
 99:   1493.91   0.031612  159.75  0.006603  ( 0.078416  0.006932  0.020154)
100:   1496.67   0.002137   10.80  0.000446  ( 0.018488  0.008065  0.006225)
101:   1504.16   0.009830   49.68  0.002039  ( 0.032947 -0.026802 -0.015348)
102:   1543.03   0.251487  1270.91  0.050861  (-0.211429  0.076954  0.015393)
103:   1575.65   0.132837  671.31  0.026309  (-0.158367  0.034584 -0.005722)
104:   1589.50   0.102538  518.18  0.020131  ( 0.130840 -0.054746  0.003844)
105:   1606.67   0.228865  1156.59  0.044452  ( 0.210036 -0.010782  0.014872)
106:   1639.20   0.007127   36.02  0.001357  (-0.032862  0.009033  0.013975)
107:   1641.32   0.120741  610.18  0.022957  (-0.150196 -0.005271 -0.019228)
108:   1659.44   0.003762   19.01  0.000707  (-0.000733  0.026538 -0.001607)
109:   1701.97   0.136660  690.62  0.025057  ( 0.084007  0.125605  0.047153)
110:   2984.46   0.004210   21.28  0.000440  ( 0.017194  0.011826  0.002171)
111:   2985.79   0.051744  261.49  0.005408  (-0.056949  0.018243  0.042803)
112:   3010.49   0.007782   39.33  0.000807  ( 0.018248  0.020283 -0.007889)
113:   3012.60   0.006278   31.73  0.000650  ( 0.004867  0.010786  0.022590)
114:   3038.10   0.007088   35.82  0.000728  (-0.006723  0.006944 -0.025191)
115:   3040.41   0.011036   55.77  0.001133  ( 0.003135 -0.020010  0.026879)
116:   3075.78   0.007447   37.63  0.000756  ( 0.001974  0.020814  0.017844)
117:   3079.33   0.005866   29.64  0.000594  ( 0.019171 -0.006843  0.013420)
118:   3084.67   0.006324   31.96  0.000640  ( 0.020750  0.014456  0.000436)
119:   3087.57   0.026095  131.87  0.002637  ( 0.038470 -0.033750  0.004294)
120:   3088.55   0.010431   52.71  0.001054  ( 0.025201  0.016504 -0.012100)
121:   3090.05   0.009000   45.48  0.000909  ( 0.000544 -0.008307 -0.028976)
122:   3172.28   0.001593    8.05  0.000157  ( 0.007695  0.009141  0.003735)
123:   3178.71   0.000672    3.40  0.000066  ( 0.002541 -0.007402 -0.002184)
124:   3223.11   0.000631    3.19  0.000061  (-0.005401  0.004331  0.003629)
125:   3240.76   0.000744    3.76  0.000072  (-0.001991  0.007350  0.003692)
126:   3242.84   0.001802    9.11  0.000173  ( 0.006066  0.005765  0.010167)
127:   3248.25   0.005011   25.32  0.000481  ( 0.019109 -0.010615 -0.001893)
128:   3546.28   0.067004  338.61  0.005896  ( 0.015021 -0.052746 -0.053743)

--------------------------
THERMOCHEMISTRY AT 298.15K
--------------------------

Temperature         ... 298.15 K
Pressure            ... 1.00 atm
Total Mass          ... 319.38 AMU

Throughout the following assumptions are being made:
  (1) The electronic state is orbitally nondegenerate
  (2) There are no thermally accessible electronically excited states
  (3) Hindered rotations indicated by low frequency modes are not
      treated as such but are treated as vibrations and this may
      cause some error
  (4) All equations used are the standard statistical mechanics
      equations for an ideal gas
  (5) All vibrations are strictly harmonic

freq.      29.53  E(vib)   ...       0.55
freq.      45.86  E(vib)   ...       0.53
freq.      66.10  E(vib)   ...       0.50
freq.      73.34  E(vib)   ...       0.49
freq.      82.60  E(vib)   ...       0.48
freq.      94.08  E(vib)   ...       0.47
freq.     130.49  E(vib)   ...       0.43
freq.     156.23  E(vib)   ...       0.40
freq.     175.88  E(vib)   ...       0.38
freq.     188.38  E(vib)   ...       0.36
freq.     223.41  E(vib)   ...       0.33
freq.     272.47  E(vib)   ...       0.29
freq.     276.71  E(vib)   ...       0.28
freq.     310.81  E(vib)   ...       0.26
freq.     316.31  E(vib)   ...       0.25
freq.     341.56  E(vib)   ...       0.23
freq.     364.58  E(vib)   ...       0.22
freq.     397.21  E(vib)   ...       0.20
freq.     404.43  E(vib)   ...       0.19
freq.     409.36  E(vib)   ...       0.19
freq.     438.91  E(vib)   ...       0.17
freq.     443.22  E(vib)   ...       0.17
freq.     462.34  E(vib)   ...       0.16
freq.     477.11  E(vib)   ...       0.15
freq.     527.51  E(vib)   ...       0.13
freq.     530.47  E(vib)   ...       0.13
freq.     541.65  E(vib)   ...       0.12
freq.     560.32  E(vib)   ...       0.11
freq.     599.23  E(vib)   ...       0.10
freq.     620.39  E(vib)   ...       0.09
freq.     638.67  E(vib)   ...       0.09
freq.     644.88  E(vib)   ...       0.09
freq.     680.67  E(vib)   ...       0.08
freq.     687.22  E(vib)   ...       0.07
freq.     706.29  E(vib)   ...       0.07
freq.     732.20  E(vib)   ...       0.06
freq.     771.55  E(vib)   ...       0.05
freq.     779.69  E(vib)   ...       0.05
freq.     796.84  E(vib)   ...       0.05
freq.     807.84  E(vib)   ...       0.05
freq.     857.22  E(vib)   ...       0.04
freq.     862.42  E(vib)   ...       0.04
freq.     871.53  E(vib)   ...       0.04
freq.     880.73  E(vib)   ...       0.04
freq.     895.23  E(vib)   ...       0.03
freq.     899.06  E(vib)   ...       0.03
freq.     911.63  E(vib)   ...       0.03
freq.     919.49  E(vib)   ...       0.03
freq.     947.22  E(vib)   ...       0.03
freq.     951.91  E(vib)   ...       0.03
freq.     977.80  E(vib)   ...       0.03
freq.     991.91  E(vib)   ...       0.02
freq.    1002.39  E(vib)   ...       0.02
freq.    1025.59  E(vib)   ...       0.02
freq.    1026.28  E(vib)   ...       0.02
freq.    1044.47  E(vib)   ...       0.02
freq.    1047.90  E(vib)   ...       0.02
freq.    1056.13  E(vib)   ...       0.02
freq.    1070.82  E(vib)   ...       0.02
freq.    1094.95  E(vib)   ...       0.02
freq.    1098.89  E(vib)   ...       0.02
freq.    1106.92  E(vib)   ...       0.02
freq.    1115.89  E(vib)   ...       0.01
freq.    1135.21  E(vib)   ...       0.01
freq.    1166.86  E(vib)   ...       0.01
freq.    1187.69  E(vib)   ...       0.01
freq.    1205.70  E(vib)   ...       0.01
freq.    1206.29  E(vib)   ...       0.01
freq.    1215.57  E(vib)   ...       0.01
freq.    1226.99  E(vib)   ...       0.01
freq.    1237.91  E(vib)   ...       0.01
freq.    1240.84  E(vib)   ...       0.01
freq.    1274.71  E(vib)   ...       0.01
freq.    1298.11  E(vib)   ...       0.01
freq.    1298.76  E(vib)   ...       0.01
freq.    1306.25  E(vib)   ...       0.01
freq.    1311.61  E(vib)   ...       0.01
freq.    1336.03  E(vib)   ...       0.01
freq.    1348.46  E(vib)   ...       0.01
freq.    1355.59  E(vib)   ...       0.01
freq.    1360.42  E(vib)   ...       0.01
freq.    1369.81  E(vib)   ...       0.01
freq.    1377.25  E(vib)   ...       0.01
freq.    1379.54  E(vib)   ...       0.01
freq.    1384.61  E(vib)   ...       0.00
freq.    1391.81  E(vib)   ...       0.00
freq.    1403.41  E(vib)   ...       0.00
freq.    1451.19  E(vib)   ...       0.00
freq.    1468.04  E(vib)   ...       0.00
freq.    1473.46  E(vib)   ...       0.00
freq.    1476.10  E(vib)   ...       0.00
freq.    1482.81  E(vib)   ...       0.00
freq.    1484.89  E(vib)   ...       0.00
freq.    1493.91  E(vib)   ...       0.00
freq.    1496.67  E(vib)   ...       0.00
freq.    1504.16  E(vib)   ...       0.00
freq.    1543.03  E(vib)   ...       0.00
freq.    1575.65  E(vib)   ...       0.00
freq.    1589.50  E(vib)   ...       0.00
freq.    1606.67  E(vib)   ...       0.00
freq.    1639.20  E(vib)   ...       0.00
freq.    1641.32  E(vib)   ...       0.00
freq.    1659.44  E(vib)   ...       0.00
freq.    1701.97  E(vib)   ...       0.00
freq.    2984.46  E(vib)   ...       0.00
freq.    2985.79  E(vib)   ...       0.00
freq.    3010.49  E(vib)   ...       0.00
freq.    3012.60  E(vib)   ...       0.00
freq.    3038.10  E(vib)   ...       0.00
freq.    3040.41  E(vib)   ...       0.00
freq.    3075.78  E(vib)   ...       0.00
freq.    3079.33  E(vib)   ...       0.00
freq.    3084.67  E(vib)   ...       0.00
freq.    3087.57  E(vib)   ...       0.00
freq.    3088.55  E(vib)   ...       0.00
freq.    3090.05  E(vib)   ...       0.00
freq.    3172.28  E(vib)   ...       0.00
freq.    3178.71  E(vib)   ...       0.00
freq.    3223.11  E(vib)   ...       0.00
freq.    3240.76  E(vib)   ...       0.00
freq.    3242.84  E(vib)   ...       0.00
freq.    3248.25  E(vib)   ...       0.00
freq.    3546.28  E(vib)   ...       0.00

------------
INNER ENERGY
------------

The inner energy is: U= E(el) + E(ZPE) + E(vib) + E(rot) + E(trans)
    E(el)   - is the total energy from the electronic structure calculation
              = E(kin-el) + E(nuc-el) + E(el-el) + E(nuc-nuc)
    E(ZPE)  - the the zero temperature vibrational energy from the frequency calculation
    E(vib)  - the the finite temperature correction to E(ZPE) due to population
              of excited vibrational states
    E(rot)  - is the rotational thermal energy
    E(trans)- is the translational thermal energy

Summary of contributions to the inner energy U:
Electronic energy                ...  -1033.77785191 Eh
Zero point energy                ...      0.35585005 Eh     223.30 kcal/mol
Thermal vibrational correction   ...      0.01567850 Eh       9.84 kcal/mol
Thermal rotational correction    ...      0.00141627 Eh       0.89 kcal/mol
Thermal translational correction ...      0.00141627 Eh       0.89 kcal/mol
-----------------------------------------------------------------------

Rotational constants in cm-1:     0.021231     0.003909     0.003358

                             ****ORCA TERMINATED NORMALLY****
TOTAL RUN TIME: 0 days 5 hours 43 minutes 54 seconds 592 msec
