                         Program Version 6.0.1  -  RELEASE   -
|  1> ! B3LYP/G OPT FREQ 6-311G* CPCM(Water)
|  2>
|  3> * xyz 0 1
|  4> C  -3.31137458071911439106 -0.50096689228381197090 -0.43536659507756925169
|  5> C  -2.91138402134533524901 -1.43020623516490896776 -1.39386406679854291113
|  6> C  -1.58017203185885524164 -1.59099456948998518868 -1.67646902496303606966
|  7> C  -2.37629999641601763471 0.26258213542743957802 0.22869825861759340846
|  8> C  -0.99671838779460575353 0.12299598907752806731 -0.03769209841385934290
|  9> O  -2.78319280126748180848 1.15119696864756737575 1.20886171537726161418
| 10> C  -0.60735479070218445496 -0.82689504260035562311 -1.01269659600928907395
| 11> C  0.77265831187194411456 -0.99531800168630724102 -1.32743651086092917524
| 12> C  1.72848903396178155134 -0.25663890796477684120 -0.72095597716813342171
| 13> C  0.02184054713991767649 0.90211219976728795888 0.62064520566101033516
| 14> C  1.38025426035368248279 0.70931278682404541591 0.26267194721341369235
| 15> N  -0.33039133429614997439 1.79517834912755080978 1.55746054455543081474
| 16> C  0.59768988695273694844 2.51106336903188598342 2.14389799449429840905
| 17> C  1.96138487751517409663 2.40504513919686679913 1.85793110063144562005
| 18> C  2.35038743983233366919 1.49146354915514711692 0.90983684120733210321
| 19> C  -3.67804750574959182785 2.11970897172060990243 0.89231454562746348458
| 20> O  -4.14651243624705045931 2.26307522594072718647 -0.22990156567383401853
| 21> N  -3.96799992610110319191 2.89424015630643172159 1.94037192132762870145
| 22> C  -3.35596808628195208968 2.72802088998273317699 3.24111141977210914789
| 23> C  -4.96386939822996087202 3.93602311782976421739 1.82439025969645252090
| 24> H  -5.74959160993628071168 3.77465317336332040199 2.56268965478311994133
| 25> H  -5.38974813449030243362 3.90250926215986737589 0.82388136440425518980
| 26> H  -4.50592936207385275083 4.91164361408779548412 1.99019893593667118736
| 27> H  -2.40170998948078961988 2.22035575869183476883 3.12938028465470097217
| 28> H  -4.00518380031068499392 2.14642140558547955820 3.89814165482163588194
| 29> H  -3.19713803327477830152 3.71362230862627962225 3.67441294916128979864
| 30> H  -1.26040842606780678636 -2.30641470347692090215 -2.41802931024573153351
| 31> H  -4.35786626223479611753 -0.36150046526976753469 -0.21092260276481189507
| 32> H  -3.65861015134378497748 -2.01649512436162270390 -1.90444329258774702751
| 33> H  1.03190515101233337703 -1.73111083695670497917 -2.07305879473536691648
| 34> H  2.77283070615195814668 -0.38083423345842892793 -0.96538414755359325259
| 35> H  0.23877652341587696228 3.21031993150153027727 2.88753709193760155216
| 36> H  2.67640643362001195982 3.02383380283549119127 2.37523936262598489577
| 37> H  3.39099788968627180452 1.35983690055050843171 0.65092752466484316010
| 38> *
| 39>
| 40>                          ****END OF INPUT****
 Total Charge           Charge          ....    0
 Multiplicity           Mult            ....    1
 Number of Electrons    NEL             ....  140
FINAL SINGLE POINT ENERGY      -878.321775359855
FINAL SINGLE POINT ENERGY      -878.326159488927
FINAL SINGLE POINT ENERGY      -878.326964808358
FINAL SINGLE POINT ENERGY      -878.327994514368
FINAL SINGLE POINT ENERGY      -878.328486443149
FINAL SINGLE POINT ENERGY      -878.329206888354
FINAL SINGLE POINT ENERGY      -878.329334102506
FINAL SINGLE POINT ENERGY      -878.329322250896
FINAL SINGLE POINT ENERGY      -878.329427203988
FINAL SINGLE POINT ENERGY      -878.329451338734
FINAL SINGLE POINT ENERGY      -878.329462892570
FINAL SINGLE POINT ENERGY      -878.329465703373
FINAL SINGLE POINT ENERGY      -878.329467618077
FINAL SINGLE POINT ENERGY      -878.329469577602
FINAL SINGLE POINT ENERGY      -878.329471453560
FINAL SINGLE POINT ENERGY      -878.329473161142
FINAL SINGLE POINT ENERGY      -878.329473904815
                    ***********************HURRAY********************

CARTESIAN COORDINATES (ANGSTROEM)
---------------------------------
  C     -3.359482   -0.814446   -0.335068
  C     -2.898516   -1.741416   -1.279980
  C     -1.561082   -1.766049   -1.608569
  C     -2.489558    0.072404    0.267888
  C     -1.101447    0.085670   -0.038766
  O     -3.045160    0.879712    1.254357
  C     -0.651251   -0.871832   -1.002566
  C      0.738171   -0.937605   -1.357793
  C      1.653781   -0.111521   -0.794400
  C     -0.115500    0.980707    0.557782
  C      1.252635    0.862890    0.174282
  N     -0.508898    1.907385    1.464436
  C      0.397131    2.708391    2.003037
  C      1.766290    2.663084    1.693667
  C      2.188911    1.732922    0.770420
  C     -3.320826    2.189287    0.933388
  O     -3.220864    2.616534   -0.203568
  N     -3.736954    2.885960    2.013395
  C     -3.878406    2.318791    3.350633
  C     -4.221990    4.249361    1.837627
  H     -5.297923    4.303575    2.033868
  H     -4.028802    4.574073    0.819687
  H     -3.708920    4.918512    2.533184
  H     -3.290657    1.411902    3.443017
  H     -4.927078    2.091413    3.571167
  H     -3.522402    3.046503    4.083359
  H     -1.184970   -2.479000   -2.334802
  H     -4.406114   -0.779143   -0.054706
  H     -3.595558   -2.430512   -1.744029
  H      1.040854   -1.676063   -2.093175
  H      2.702706   -0.172874   -1.066996
  H      0.026342    3.434813    2.722391
  H      2.458563    3.347295    2.170682
  H      3.235123    1.657117    0.490534

 Multiplicity           Mult            ....    1
 Number of Electrons    NEL             ....  140
 Basis Dimension        Dim             ....  402

ORBITAL ENERGIES
----------------

  NO   OCC          E(Eh)            E(eV)
   0   2.0000     -19.164938      -521.5045
   1   2.0000     -19.089331      -519.4471
   2   2.0000     -14.345029      -390.3481
   3   2.0000     -14.313624      -389.4935
   4   2.0000     -10.319461      -280.8068
   5   2.0000     -10.247604      -278.8515
   6   2.0000     -10.226662      -278.2816
   7   2.0000     -10.212356      -277.8923
   8   2.0000     -10.201886      -277.6074
   9   2.0000     -10.198637      -277.5190
  10   2.0000     -10.197249      -277.4813
  11   2.0000     -10.194632      -277.4100
  12   2.0000     -10.193880      -277.3896
  13   2.0000     -10.193601      -277.3820
  14   2.0000     -10.183952      -277.1194
  15   2.0000     -10.183811      -277.1156
  16   2.0000     -10.183748      -277.1139
  17   2.0000     -10.183111      -277.0965
  18   2.0000     -10.181482      -277.0522
  19   2.0000     -10.180666      -277.0300
  20   2.0000      -1.114324       -30.3223
  21   2.0000      -1.021723       -27.8025
  22   2.0000      -0.955743       -26.0071
  23   2.0000      -0.944922       -25.7126
  24   2.0000      -0.881207       -23.9789
  25   2.0000      -0.839427       -22.8420
  26   2.0000      -0.808224       -21.9929
  27   2.0000      -0.783688       -21.3252
  28   2.0000      -0.752429       -20.4746
  29   2.0000      -0.744969       -20.2716
  30   2.0000      -0.721705       -19.6386
  31   2.0000      -0.705842       -19.2069
  32   2.0000      -0.656203       -17.8562
  33   2.0000      -0.649157       -17.6645
  34   2.0000      -0.631912       -17.1952
  35   2.0000      -0.619458       -16.8563
  36   2.0000      -0.574741       -15.6395
  37   2.0000      -0.548114       -14.9149
  38   2.0000      -0.536503       -14.5990
  39   2.0000      -0.531096       -14.4519
  40   2.0000      -0.516021       -14.0416
  41   2.0000      -0.495492       -13.4830
  42   2.0000      -0.492171       -13.3927
  43   2.0000      -0.484002       -13.1704
  44   2.0000      -0.479403       -13.0452
  45   2.0000      -0.466457       -12.6929
  46   2.0000      -0.446223       -12.1423
  47   2.0000      -0.444117       -12.0850
  48   2.0000      -0.435754       -11.8575
  49   2.0000      -0.430442       -11.7129
  50   2.0000      -0.418924       -11.3995
  51   2.0000      -0.414105       -11.2684
  52   2.0000      -0.408303       -11.1105
  53   2.0000      -0.407131       -11.0786
  54   2.0000      -0.405376       -11.0309
  55   2.0000      -0.401470       -10.9246
  56   2.0000      -0.386559       -10.5188
  57   2.0000      -0.385269       -10.4837
  58   2.0000      -0.376714       -10.2509
  59   2.0000      -0.364173        -9.9096
  60   2.0000      -0.356713        -9.7067
  61   2.0000      -0.336998        -9.1702
  62   2.0000      -0.317499        -8.6396
  63   2.0000      -0.306567        -8.3421
  64   2.0000      -0.287857        -7.8330
  65   2.0000      -0.281101        -7.6492
  66   2.0000      -0.262253        -7.1363
  67   2.0000      -0.249596        -6.7918
  68   2.0000      -0.248716        -6.7679
  69   2.0000      -0.229596        -6.2476
  70   0.0000      -0.061985        -1.6867
  71   0.0000      -0.053798        -1.4639
  72   0.0000      -0.014920        -0.4060
  73   0.0000       0.012225         0.3327
  74   0.0000       0.041239         1.1222

MULLIKEN ATOMIC CHARGES
-----------------------
   0 C :   -0.213776
   1 C :   -0.220091
   2 C :   -0.221293
   3 C :    0.204540
   4 C :    0.034248
   5 O :   -0.386674
   6 C :    0.001520
   7 C :   -0.225967
   8 C :   -0.230875
   9 C :    0.124061
  10 C :   -0.013145
  11 N :   -0.377331
  12 C :   -0.045304
  13 C :   -0.298676
  14 C :   -0.100422
  15 C :    0.566352
  16 O :   -0.456664
  17 N :   -0.342751
  18 C :   -0.516402
  19 C :   -0.523724
  20 H :    0.231273
  21 H :    0.234512
  22 H :    0.235712
  23 H :    0.241636
  24 H :    0.230471
  25 H :    0.233949
  26 H :    0.228193
  27 H :    0.228002
  28 H :    0.228073
  29 H :    0.230062
  30 H :    0.228732
  31 H :    0.224026
  32 H :    0.230535
  33 H :    0.237199
Sum of atomic charges:    0.0000000

LOEWDIN ATOMIC CHARGES
----------------------
   0 C :   -0.114387
   1 C :   -0.102152
   2 C :   -0.101534
   3 C :   -0.008474
   4 C :   -0.037014
   5 O :    0.048422
   6 C :   -0.029176
   7 C :   -0.093050
   8 C :   -0.098058
   9 C :   -0.032306
  10 C :   -0.048880
  11 N :   -0.016557
  12 C :   -0.099675
  13 C :   -0.128658
  14 C :   -0.060838
  15 C :   -0.111798
  16 O :   -0.192914
  17 N :    0.031153
  18 C :   -0.242382
  19 C :   -0.240284
  20 H :    0.111955
  21 H :    0.117129
  22 H :    0.114442
  23 H :    0.116899
  24 H :    0.110620
  25 H :    0.115689
  26 H :    0.124086
  27 H :    0.124728
  28 H :    0.124545
  29 H :    0.125742
  30 H :    0.125487
  31 H :    0.110682
  32 H :    0.127744
  33 H :    0.128817

  Mayer bond orders larger than 0.100000
B(  0-C ,  1-C ) :   1.3458 B(  0-C ,  3-C ) :   1.5001 B(  0-C , 27-H ) :   0.9209
B(  1-C ,  2-C ) :   1.5086 B(  1-C , 28-H ) :   0.9270 B(  2-C ,  6-C ) :   1.3186
B(  2-C , 26-H ) :   0.9230 B(  3-C ,  4-C ) :   1.2547 B(  3-C ,  5-O ) :   0.9109
B(  4-C ,  6-C ) :   1.3370 B(  4-C ,  9-C ) :   1.1917 B(  5-O , 15-C ) :   1.0167
B(  6-C ,  7-C ) :   1.1994 B(  7-C ,  8-C ) :   1.6579 B(  7-C , 29-H ) :   0.9206
B(  8-C , 10-C ) :   1.1871 B(  8-C , 30-H ) :   0.9238 B(  9-C , 10-C ) :   1.2387
B(  9-C , 11-N ) :   1.4543 B( 10-C , 14-C ) :   1.3096 B( 11-N , 12-C ) :   1.5646
B( 12-C , 13-C ) :   1.3205 B( 12-C , 31-H ) :   0.9277 B( 13-C , 14-C ) :   1.4954
B( 13-C , 32-H ) :   0.9220 B( 14-C , 33-H ) :   0.9253 B( 15-C , 16-O ) :   1.8954
B( 15-C , 17-N ) :   1.2075 B( 17-N , 18-C ) :   0.9500 B( 17-N , 19-C ) :   0.9616
B( 18-C , 23-H ) :   0.9151 B( 18-C , 24-H ) :   0.9179 B( 18-C , 25-H ) :   0.9202
B( 19-C , 20-H ) :   0.9195 B( 19-C , 21-H ) :   0.9154 B( 19-C , 22-H ) :   0.9203

FINAL SINGLE POINT ENERGY      -878.329474206466

DIPOLE MOMENT
-------------

Method             : SCF
Type of density    : Electron Density
Multiplicity       :   1
Irrep              :   0
Energy             :  -878.3294742064658749 Eh
Relativity type    :
Basis              : AO
                                X                 Y                 Z
Electronic contribution:      5.600732708      -6.188609686      -5.653545534
Nuclear contribution   :     -4.705565670       5.957890379       6.666030014
                        -----------------------------------------
Total Dipole Moment    :      0.895167038      -0.230719307       1.012484480
                        -----------------------------------------
Magnitude (a.u.)       :      1.371014313
Magnitude (Debye)      :      3.484841440

VIBRATIONAL FREQUENCIES
-----------------------

Scaling factor for frequencies =  1.000000000  (already applied!)

     0:       0.00 cm**-1
     1:       0.00 cm**-1
     2:       0.00 cm**-1
     3:       0.00 cm**-1
     4:       0.00 cm**-1
     5:       0.00 cm**-1
     6:      32.95 cm**-1
     7:      35.61 cm**-1
     8:      49.53 cm**-1
     9:      63.20 cm**-1
    10:      88.48 cm**-1
    11:      99.21 cm**-1
    12:     115.00 cm**-1
    13:     130.05 cm**-1
    14:     203.63 cm**-1
    15:     216.18 cm**-1
    16:     229.56 cm**-1
    17:     233.52 cm**-1
    18:     245.02 cm**-1
    19:     296.45 cm**-1
    20:     365.33 cm**-1
    21:     377.30 cm**-1
    22:     409.81 cm**-1
    23:     421.21 cm**-1
    24:     463.57 cm**-1
    25:     488.90 cm**-1
    26:     509.70 cm**-1
    27:     519.60 cm**-1
    28:     524.83 cm**-1
    29:     561.36 cm**-1
    30:     582.27 cm**-1
    31:     607.38 cm**-1
    32:     623.21 cm**-1
    33:     659.19 cm**-1
    34:     701.66 cm**-1
    35:     729.76 cm**-1
    36:     736.01 cm**-1
    37:     739.53 cm**-1
    38:     773.21 cm**-1
    39:     800.95 cm**-1
    40:     823.77 cm**-1
    41:     833.34 cm**-1
    42:     853.98 cm**-1
    43:     868.28 cm**-1
    44:     870.65 cm**-1
    45:     922.24 cm**-1
    46:     965.45 cm**-1
    47:     979.63 cm**-1
    48:     988.14 cm**-1
    49:     994.21 cm**-1
    50:    1000.84 cm**-1
    51:    1029.00 cm**-1
    52:    1046.47 cm**-1
    53:    1082.44 cm**-1
    54:    1084.29 cm**-1
    55:    1107.83 cm**-1
    56:    1133.75 cm**-1
    57:    1148.17 cm**-1
    58:    1159.87 cm**-1
    59:    1172.39 cm**-1
    60:    1181.29 cm**-1
    61:    1188.02 cm**-1
    62:    1220.59 cm**-1
    63:    1225.87 cm**-1
    64:    1258.01 cm**-1
    65:    1272.17 cm**-1
    66:    1286.17 cm**-1
    67:    1324.53 cm**-1
    68:    1342.59 cm**-1
    69:    1355.88 cm**-1
    70:    1412.11 cm**-1
    71:    1420.68 cm**-1
    72:    1446.10 cm**-1
    73:    1452.54 cm**-1
    74:    1456.93 cm**-1
    75:    1470.42 cm**-1
    76:    1477.67 cm**-1
    77:    1492.96 cm**-1
    78:    1501.00 cm**-1
    79:    1504.63 cm**-1
    80:    1531.58 cm**-1
    81:    1536.45 cm**-1
    82:    1548.45 cm**-1
    83:    1601.16 cm**-1
    84:    1633.18 cm**-1
    85:    1647.03 cm**-1
    86:    1661.52 cm**-1
    87:    1743.13 cm**-1
    88:    3023.63 cm**-1
    89:    3028.53 cm**-1
    90:    3078.18 cm**-1
    91:    3084.85 cm**-1
    92:    3150.51 cm**-1
    93:    3169.90 cm**-1
    94:    3173.63 cm**-1
    95:    3176.39 cm**-1
    96:    3177.02 cm**-1
    97:    3184.22 cm**-1
    98:    3186.56 cm**-1
    99:    3189.48 cm**-1
   100:    3200.97 cm**-1
   101:    3201.27 cm**-1

IR SPECTRUM
-----------

 Mode   freq       eps      Int      T**2         TX        TY        TZ
       cm**-1   L/(mol*cm) km/mol    a.u.
----------------------------------------------------------------------------
  6:     32.95   0.000285    1.44  0.002703  (-0.023302 -0.046362 -0.003198)
  7:     35.61   0.000935    4.73  0.008197  ( 0.081449 -0.003880  0.039343)
  8:     49.53   0.000150    0.76  0.000943  ( 0.002772 -0.027364  0.013643)
  9:     63.20   0.000455    2.30  0.002247  ( 0.040665  0.020329  0.013411)
 10:     88.48   0.000361    1.82  0.001272  (-0.031797 -0.013510 -0.008842)
 11:     99.21   0.001971    9.96  0.006200  (-0.013850  0.057423 -0.052067)
 12:    115.00   0.000395    2.00  0.001073  (-0.024697  0.021433 -0.001831)
 13:    130.05   0.000400    2.02  0.000961  (-0.027340 -0.014291 -0.002989)
 14:    203.63   0.000169    0.86  0.000260  (-0.013224 -0.001046  0.009153)
 15:    216.18   0.000672    3.40  0.000970  (-0.029447 -0.008889 -0.004885)
 16:    229.56   0.000574    2.90  0.000781  (-0.020013  0.002988 -0.019273)
 17:    233.52   0.001195    6.04  0.001597  (-0.006546 -0.027162  0.028565)
 18:    245.02   0.000720    3.64  0.000917  ( 0.001446 -0.016256 -0.025504)
 19:    296.45   0.000163    0.82  0.000171  (-0.000771 -0.007601  0.010636)
 20:    365.33   0.003584   18.11  0.003062  (-0.020573  0.046344  0.022148)
 21:    377.30   0.001060    5.36  0.000877  ( 0.014219 -0.025625 -0.004212)
 22:    409.81   0.000774    3.91  0.000590  ( 0.010680 -0.010292 -0.019228)
 23:    421.21   0.000041    0.21  0.000031  ( 0.002848 -0.003911 -0.002693)
 24:    463.57   0.001877    9.48  0.001263  (-0.016838  0.023528 -0.020647)
 25:    488.90   0.000147    0.74  0.000094  ( 0.003178 -0.004595 -0.007897)
 26:    509.70   0.000035    0.18  0.000022  ( 0.003934  0.001922 -0.001545)
 27:    519.60   0.000979    4.95  0.000588  (-0.003041  0.023539 -0.004985)
 28:    524.83   0.001010    5.10  0.000601  ( 0.023010  0.008143  0.002199)
 29:    561.36   0.001161    5.87  0.000645  ( 0.013381  0.014979  0.015558)
 30:    582.27   0.000256    1.30  0.000137  (-0.007207  0.000751  0.009216)
 31:    607.38   0.001832    9.26  0.000941  (-0.022381  0.002739  0.020804)
 32:    623.21   0.002494   12.60  0.001249  (-0.030152 -0.015574  0.009850)
 33:    659.19   0.001500    7.58  0.000710  ( 0.016222  0.009543  0.018871)
 34:    701.66   0.000596    3.01  0.000265  (-0.012231  0.004352  0.009834)
 35:    729.76   0.001789    9.04  0.000765  ( 0.009852 -0.014727  0.021237)
 36:    736.01   0.013262   67.02  0.005623  (-0.024124 -0.065120  0.028288)
 37:    739.53   0.011571   58.47  0.004883  ( 0.057857 -0.006383  0.038658)
 38:    773.21   0.004532   22.90  0.001829  ( 0.010480 -0.016757  0.037928)
 39:    800.95   0.000222    1.12  0.000087  ( 0.001704  0.008847 -0.002319)
 40:    823.77   0.003509   17.73  0.001329  ( 0.020238 -0.003622  0.030107)
 41:    833.34   0.004539   22.94  0.001700  (-0.024794 -0.001629  0.032900)
 42:    853.98   0.010819   54.68  0.003954  ( 0.008573 -0.038655  0.048846)
 43:    868.28   0.013111   66.26  0.004712  ( 0.022384 -0.056594  0.031756)
 44:    870.65   0.001305    6.60  0.000468  ( 0.005326  0.020924 -0.001293)
 45:    922.24   0.000638    3.22  0.000216  (-0.007287  0.011554  0.005401)
 46:    965.45   0.000115    0.58  0.000037  (-0.000676  0.004373 -0.004177)
 47:    979.63   0.000072    0.36  0.000023  ( 0.000678 -0.002247  0.004172)
 48:    988.14   0.000127    0.64  0.000040  ( 0.000418 -0.002405  0.005839)
 49:    994.21   0.005369   27.13  0.001685  (-0.021818 -0.002671  0.034672)
 50:   1000.84   0.000193    0.98  0.000060  ( 0.001038 -0.005248  0.005626)
 51:   1029.00   0.009063   45.80  0.002749  ( 0.043908 -0.028515 -0.002751)
 52:   1046.47   0.008353   42.21  0.002491  ( 0.024711 -0.043317 -0.001952)
 53:   1082.44   0.003822   19.31  0.001102  ( 0.008867 -0.031966  0.001158)
 54:   1084.29   0.001044    5.28  0.000301  (-0.000228  0.009188 -0.014700)
 55:   1107.83   0.000612    3.09  0.000172  (-0.012732 -0.002982 -0.001147)
 56:   1133.75   0.000513    2.59  0.000141  ( 0.004150  0.003557 -0.010557)
 57:   1148.17   0.008261   41.75  0.002245  (-0.006045 -0.042652 -0.019739)
 58:   1159.87   0.186747  943.74  0.050244  (-0.102300  0.170151  0.104057)
 59:   1172.39   0.001819    9.19  0.000484  (-0.002777  0.016302  0.014513)
 60:   1181.29   0.018188   91.92  0.004805  (-0.037547  0.055298  0.018364)
 61:   1188.02   0.002230   11.27  0.000586  ( 0.012003 -0.020816 -0.002891)
 62:   1220.59   0.004219   21.32  0.001079  (-0.008607  0.027626  0.015539)
 63:   1225.87   0.008414   42.52  0.002142  (-0.022115  0.036372  0.018166)
 64:   1258.01   0.027999  141.50  0.006946  (-0.050807  0.060862  0.025691)
 65:   1272.17   0.004586   23.18  0.001125  (-0.012911  0.029398  0.009700)
 66:   1286.17   0.002980   15.06  0.000723  ( 0.003079  0.022461 -0.014463)
 67:   1324.53   0.003104   15.68  0.000731  ( 0.018653 -0.015242 -0.012287)
 68:   1342.59   0.006168   31.17  0.001434  (-0.021242  0.024788  0.019182)
 69:   1355.88   0.002026   10.24  0.000466  ( 0.015483 -0.011063 -0.010204)
 70:   1412.11   0.025140  127.05  0.005556  ( 0.000398  0.062546  0.040541)
 71:   1420.68   0.043653  220.60  0.009589  (-0.056562  0.070161  0.038299)
 72:   1446.10   0.003720   18.80  0.000803  ( 0.005662  0.006369 -0.027022)
 73:   1452.54   0.002461   12.43  0.000529  (-0.005202 -0.019610 -0.010817)
 74:   1456.93   0.006322   31.95  0.001354  ( 0.001770  0.030046  0.021170)
 75:   1470.42   0.006549   33.09  0.001390  ( 0.019139 -0.029544  0.012274)
 76:   1477.67   0.003728   18.84  0.000787  ( 0.020890  0.010010 -0.015837)
 77:   1492.96   0.000441    2.23  0.000092  ( 0.001153 -0.001953 -0.009333)
 78:   1501.00   0.006582   33.26  0.001368  (-0.029928 -0.007073 -0.020557)
 79:   1504.63   0.003211   16.23  0.000666  ( 0.001370  0.021367 -0.014409)
 80:   1531.58   0.001658    8.38  0.000338  ( 0.014546 -0.009992  0.005128)
 81:   1536.45   0.014050   71.00  0.002854  ( 0.014401 -0.050952 -0.007084)
 82:   1548.45   0.010241   51.75  0.002064  (-0.024930  0.032762  0.019209)
 83:   1601.16   0.007840   39.62  0.001528  ( 0.037331 -0.004274 -0.010777)
 84:   1633.18   0.010980   55.49  0.002098  (-0.008722 -0.034712 -0.028584)
 85:   1647.03   0.001179    5.96  0.000223  (-0.007690 -0.009109 -0.009014)
 86:   1661.52   0.004327   21.87  0.000813  ( 0.027401  0.007821 -0.000831)
 87:   1743.13   0.176276  890.83  0.031558  ( 0.035402  0.005888 -0.173982)
 88:   3023.63   0.008652   43.72  0.000893  (-0.006726 -0.021107  0.020055)
 89:   3028.53   0.026007  131.43  0.002680  ( 0.038016 -0.020982 -0.028185)
 90:   3078.18   0.015745   79.57  0.001596  ( 0.030140  0.020665  0.016148)
 91:   3084.85   0.005058   25.56  0.000512  ( 0.013703  0.011592  0.013766)
 92:   3150.51   0.009591   48.47  0.000950  (-0.004054  0.022150  0.021047)
 93:   3169.90   0.000370    1.87  0.000036  ( 0.005646  0.002031  0.000658)
 94:   3173.63   0.001598    8.07  0.000157  (-0.001576 -0.004491  0.011595)
 95:   3176.39   0.000833    4.21  0.000082  (-0.007119  0.003064  0.004666)
 96:   3177.02   0.002080   10.51  0.000204  ( 0.013238 -0.002505 -0.004777)
 97:   3184.22   0.002549   12.88  0.000250  (-0.009418  0.012668  0.000824)
 98:   3186.56   0.005015   25.34  0.000491  ( 0.018850 -0.006345 -0.009772)
 99:   3189.48   0.009353   47.26  0.000915  ( 0.007593 -0.020994 -0.020412)
100:   3200.97   0.010688   54.02  0.001042  ( 0.022801  0.019135  0.012489)
101:   3201.27   0.000676    3.41  0.000066  ( 0.007292  0.003451  0.000890)

--------------------------
THERMOCHEMISTRY AT 298.15K
--------------------------

Temperature         ...   298.15 K
Pressure            ...     1.00 atm
Total Mass          ...   266.30 AMU
Quasi RRHO          ...     True
Cut-Off Frequency   ...     1.00 cm^-1

Throughout the following assumptions are being made:
  (1) The electronic state is orbitally nondegenerate
  (2) There are no thermally accessible electronically excited states
  (3) Hindered rotations indicated by low frequency modes are not
      treated as such but are treated as vibrations and this may
      cause some error
  (4) All equations used are the standard statistical mechanics
      equations for an ideal gas
  (5) All vibrations are strictly harmonic

freq.      32.95  E(vib)   ...       0.55
freq.      35.61  E(vib)   ...       0.54
freq.      49.53  E(vib)   ...       0.52
freq.      63.20  E(vib)   ...       0.51
freq.      88.48  E(vib)   ...       0.47
freq.      99.21  E(vib)   ...       0.46
freq.     115.00  E(vib)   ...       0.44
freq.     130.05  E(vib)   ...       0.43
freq.     203.63  E(vib)   ...       0.35
freq.     216.18  E(vib)   ...       0.34
freq.     229.56  E(vib)   ...       0.32
freq.     233.52  E(vib)   ...       0.32
freq.     245.02  E(vib)   ...       0.31
freq.     296.45  E(vib)   ...       0.27
freq.     365.33  E(vib)   ...       0.22
freq.     377.30  E(vib)   ...       0.21
freq.     409.81  E(vib)   ...       0.19
freq.     421.21  E(vib)   ...       0.18
freq.     463.57  E(vib)   ...       0.16
freq.     488.90  E(vib)   ...       0.15
freq.     509.70  E(vib)   ...       0.14
freq.     519.60  E(vib)   ...       0.13
freq.     524.83  E(vib)   ...       0.13
freq.     561.36  E(vib)   ...       0.11
freq.     582.27  E(vib)   ...       0.11
freq.     607.38  E(vib)   ...       0.10
freq.     623.21  E(vib)   ...       0.09
freq.     659.19  E(vib)   ...       0.08
freq.     701.66  E(vib)   ...       0.07
freq.     729.76  E(vib)   ...       0.06
freq.     736.01  E(vib)   ...       0.06
freq.     739.53  E(vib)   ...       0.06
freq.     773.21  E(vib)   ...       0.05
freq.     800.95  E(vib)   ...       0.05
freq.     823.77  E(vib)   ...       0.05
freq.     833.34  E(vib)   ...       0.04
freq.     853.98  E(vib)   ...       0.04
freq.     868.28  E(vib)   ...       0.04
freq.     870.65  E(vib)   ...       0.04
freq.     922.24  E(vib)   ...       0.03
freq.     965.45  E(vib)   ...       0.03
freq.     979.63  E(vib)   ...       0.03
freq.     988.14  E(vib)   ...       0.02
freq.     994.21  E(vib)   ...       0.02
freq.    1000.84  E(vib)   ...       0.02
freq.    1029.00  E(vib)   ...       0.02
freq.    1046.47  E(vib)   ...       0.02
freq.    1082.44  E(vib)   ...       0.02
freq.    1084.29  E(vib)   ...       0.02
freq.    1107.83  E(vib)   ...       0.02
freq.    1133.75  E(vib)   ...       0.01
freq.    1148.17  E(vib)   ...       0.01
freq.    1159.87  E(vib)   ...       0.01
freq.    1172.39  E(vib)   ...       0.01
freq.    1181.29  E(vib)   ...       0.01
freq.    1188.02  E(vib)   ...       0.01
freq.    1220.59  E(vib)   ...       0.01
freq.    1225.87  E(vib)   ...       0.01
freq.    1258.01  E(vib)   ...       0.01
freq.    1272.17  E(vib)   ...       0.01
freq.    1286.17  E(vib)   ...       0.01
freq.    1324.53  E(vib)   ...       0.01
freq.    1342.59  E(vib)   ...       0.01
freq.    1355.88  E(vib)   ...       0.01
freq.    1412.11  E(vib)   ...       0.00
freq.    1420.68  E(vib)   ...       0.00
freq.    1446.10  E(vib)   ...       0.00
freq.    1452.54  E(vib)   ...       0.00
freq.    1456.93  E(vib)   ...       0.00
freq.    1470.42  E(vib)   ...       0.00
freq.    1477.67  E(vib)   ...       0.00
freq.    1492.96  E(vib)   ...       0.00
freq.    1501.00  E(vib)   ...       0.00
freq.    1504.63  E(vib)   ...       0.00
freq.    1531.58  E(vib)   ...       0.00
freq.    1536.45  E(vib)   ...       0.00
freq.    1548.45  E(vib)   ...       0.00
freq.    1601.16  E(vib)   ...       0.00
freq.    1633.18  E(vib)   ...       0.00
freq.    1647.03  E(vib)   ...       0.00
freq.    1661.52  E(vib)   ...       0.00
freq.    1743.13  E(vib)   ...       0.00
freq.    3023.63  E(vib)   ...       0.00
freq.    3028.53  E(vib)   ...       0.00
freq.    3078.18  E(vib)   ...       0.00
freq.    3084.85  E(vib)   ...       0.00
freq.    3150.51  E(vib)   ...       0.00
freq.    3169.90  E(vib)   ...       0.00
freq.    3173.63  E(vib)   ...       0.00
freq.    3176.39  E(vib)   ...       0.00
freq.    3177.02  E(vib)   ...       0.00
freq.    3184.22  E(vib)   ...       0.00
freq.    3186.56  E(vib)   ...       0.00
freq.    3189.48  E(vib)   ...       0.00
freq.    3200.97  E(vib)   ...       0.00
freq.    3201.27  E(vib)   ...       0.00

------------
INNER ENERGY
------------

The inner energy is: U= E(el) + E(ZPE) + E(vib) + E(rot) + E(trans)
    E(el)   - is the total energy from the electronic structure calculation
              = E(kin-el) + E(nuc-el) + E(el-el) + E(nuc-nuc)
    E(ZPE)  - the the zero temperature vibrational energy from the frequency calculation
    E(vib)  - the the finite temperature correction to E(ZPE) due to population
              of excited vibrational states
    E(rot)  - is the rotational thermal energy
    E(trans)- is the translational thermal energy

Summary of contributions to the inner energy U:
Electronic energy                ...   -878.32947421 Eh
Zero point energy                ...      0.26863172 Eh     168.57 kcal/mol
Thermal vibrational correction   ...      0.01404703 Eh       8.81 kcal/mol
Thermal rotational correction    ...      0.00141627 Eh       0.89 kcal/mol
Thermal translational correction ...      0.00141627 Eh       0.89 kcal/mol
-----------------------------------------------------------------------
Total thermal energy                   -878.04396292 Eh

Summary of corrections to the electronic energy:
(perhaps to be used in another calculation)
Total thermal correction                  0.01687957 Eh      10.59 kcal/mol
Non-thermal (ZPE) correction              0.26863172 Eh     168.57 kcal/mol
-----------------------------------------------------------------------
Total correction                          0.28551129 Eh     179.16 kcal/mol

--------
ENTHALPY
--------

The enthalpy is H = U + kB*T
                kB is Boltzmann's constant
Total thermal energy              ...   -878.04396292 Eh
Thermal Enthalpy correction       ...      0.00094421 Eh       0.59 kcal/mol
-----------------------------------------------------------------------
Total Enthalpy                    ...   -878.04301871 Eh

Note: Only C1 symmetry has been detected, increase convergence thresholds
      if your molecule has a higher symmetry. Symmetry factor of 1.0 is

Rotational constants in cm-1:     0.016152     0.010984     0.007128

                             ****ORCA TERMINATED NORMALLY****
TOTAL RUN TIME: 0 days 2 hours 37 minutes 6 seconds 404 msec
