                         Program Version 6.0.1  -  RELEASE   -
|  1> ! CAM-B3LYP FREQ Def2-TZVP(-f) Def2-TZVP/C Def2/J RIJCOSX TightSCF CPCM(Water) AllPop SOSCF
|  2> %pal nprocs 128 end
|  3>
|  4> %tddft
|  5>     NRoots 3
|  6>     IRoot 1
|  7> end
|  8>
|  9> * xyz 1 1
| 10>   C     -4.407140   -1.283900    1.663535
| 11>   C     -3.562134   -0.833223    0.495185
| 12>   C     -3.503543   -2.224811    1.103524
| 13>   C     -3.325179   -1.755231    2.589851
| 14>   C     -2.443893    0.104931    0.735672
| 15>   C     -1.793961    0.105923    1.961347
| 16>   O     -1.902122    0.825243   -0.273148
| 17>   C     -2.145701   -0.956037    2.878526
| 18>   C     -1.288086   -1.298390    3.926490
| 19>   C     -0.070792   -0.681892    4.077378
| 20>   C     -0.670381    0.941622    2.328725
| 21>   C      0.263608    0.444764    3.277509
| 22>   N     -0.439182    2.197023    1.802572
| 23>   C      0.769242    2.789395    1.930044
| 24>   C      1.786391    2.221042    2.671452
| 25>   C      1.505249    1.093319    3.407123
| 26>   C     -2.629270    1.178761   -1.420674
| 27>   O     -3.826985    1.379224   -1.379449
| 28>   N     -1.822014    1.293127   -2.480795
| 29>   C     -2.365738    1.803600   -3.735664
| 30>   C     -0.389741    1.003658   -2.484915
| 31>   H     -0.158502    0.413600   -3.372400
| 32>   H     -0.105831    0.441982   -1.603474
| 33>   H      0.182739    1.932925   -2.524336
| 34>   H     -3.412242    2.056217   -3.606581
| 35>   H     -2.266411    1.046044   -4.515088
| 36>   H     -1.809956    2.692999   -4.038106
| 37>   H     -3.598846   -2.505570    3.321032
| 38>   H     -4.072464   -0.753198   -0.450896
| 39>   H     -3.395601   -3.225616    0.713354
| 40>   H     -1.566667   -2.117424    4.577500
| 41>   H      0.641564   -1.015770    4.818736
| 42>   H      0.882669    3.757739    1.468768
| 43>   H      2.744554    2.716285    2.723352
| 44>   H      2.238249    0.685262    4.091438
| 45>   P     -1.761343    3.369910    1.392873
| 46>   O     -3.073712    2.781294    1.651489
| 47>   O     -1.314455    3.741596   -0.052997
| 48>   O     -1.372222    4.617922    2.255622
| 49>   C     -1.458154    5.079256   -0.670087
| 50>   C     -2.025515    4.971806    3.532343
| 51>   C     -2.873899    5.337970   -1.122990
| 52>   H     -0.764056    5.040623   -1.505100
| 53>   H     -1.111893    5.814120    0.052751
| 54>   H     -3.564965    5.378978   -0.279988
| 55>   H     -3.209200    4.572738   -1.822786
| 56>   H     -2.900433    6.304592   -1.630403
| 57>   C     -1.099873    4.693382    4.690774
| 58>   H     -2.957643    4.416086    3.602899
| 59>   H     -2.245517    6.031944    3.431443
| 60>   H     -1.585220    5.026441    5.610450
| 61>   H     -0.160964    5.237011    4.582291
| 62>   H     -0.887395    3.627658    4.783065
| 63> *
| 64>
| 65>
| 66>                          ****END OF INPUT****

CARTESIAN COORDINATES (ANGSTROEM)
---------------------------------
  C     -4.407140   -1.283900    1.663535
  C     -3.562134   -0.833223    0.495185
  C     -3.503543   -2.224811    1.103524
  C     -3.325179   -1.755231    2.589851
  C     -2.443893    0.104931    0.735672
  C     -1.793961    0.105923    1.961347
  O     -1.902122    0.825243   -0.273148
  C     -2.145701   -0.956037    2.878526
  C     -1.288086   -1.298390    3.926490
  C     -0.070792   -0.681892    4.077378
  C     -0.670381    0.941622    2.328725
  C      0.263608    0.444764    3.277509
  N     -0.439182    2.197023    1.802572
  C      0.769242    2.789395    1.930044
  C      1.786391    2.221042    2.671452
  C      1.505249    1.093319    3.407123
  C     -2.629270    1.178761   -1.420674
  O     -3.826985    1.379224   -1.379449
  N     -1.822014    1.293127   -2.480795
  C     -2.365738    1.803600   -3.735664
  C     -0.389741    1.003658   -2.484915
  H     -0.158502    0.413600   -3.372400
  H     -0.105831    0.441982   -1.603474
  H      0.182739    1.932925   -2.524336
  H     -3.412242    2.056217   -3.606581
  H     -2.266411    1.046044   -4.515088
  H     -1.809956    2.692999   -4.038106
  H     -3.598846   -2.505570    3.321032
  H     -4.072464   -0.753198   -0.450896
  H     -3.395601   -3.225616    0.713354
  H     -1.566667   -2.117424    4.577500
  H      0.641564   -1.015770    4.818736
  H      0.882669    3.757739    1.468768
  H      2.744554    2.716285    2.723352
  H      2.238249    0.685262    4.091438
  P     -1.761343    3.369910    1.392873
  O     -3.073712    2.781294    1.651489
  O     -1.314455    3.741596   -0.052997
  O     -1.372222    4.617922    2.255622
  C     -1.458154    5.079256   -0.670087
  C     -2.025515    4.971806    3.532343
  C     -2.873899    5.337970   -1.122990
  H     -0.764056    5.040623   -1.505100
  H     -1.111893    5.814120    0.052751
  H     -3.564965    5.378978   -0.279988
  H     -3.209200    4.572738   -1.822786
  H     -2.900433    6.304592   -1.630403
  C     -1.099873    4.693382    4.690774
  H     -2.957643    4.416086    3.602899
  H     -2.245517    6.031944    3.431443
  H     -1.585220    5.026441    5.610450
  H     -0.160964    5.237011    4.582291
  H     -0.887395    3.627658    4.783065

 Total Charge           Charge          ....    1
 Multiplicity           Mult            ....    1
 Number of Electrons    NEL             ....  218
 Basis Dimension        Dim             ....  846

ORBITAL ENERGIES
----------------

  NO   OCC          E(Eh)            E(eV)
   0   2.0000     -77.300575     -2103.4556
   1   2.0000     -19.304668      -525.3067
   2   2.0000     -19.261747      -524.1388
   3   2.0000     -19.260287      -524.0990
   4   2.0000     -19.198832      -522.4268
   5   2.0000     -19.198149      -522.4082
   6   2.0000     -14.509232      -394.8163
   7   2.0000     -14.447857      -393.1462
   8   2.0000     -10.427991      -283.7601
   9   2.0000     -10.403924      -283.1052
  10   2.0000     -10.368057      -282.1292
  11   2.0000     -10.351147      -281.6690
  12   2.0000     -10.324821      -280.9527
  13   2.0000     -10.320452      -280.8338
  14   2.0000     -10.317891      -280.7641
  15   2.0000     -10.314514      -280.6722
  16   2.0000     -10.309118      -280.5254
  17   2.0000     -10.305891      -280.4375
  18   2.0000     -10.302207      -280.3373
  19   2.0000     -10.290336      -280.0143
  20   2.0000     -10.287494      -279.9369
  21   2.0000     -10.285322      -279.8778
  22   2.0000     -10.281655      -279.7781
  23   2.0000     -10.280035      -279.7340
  24   2.0000     -10.277430      -279.6631
  25   2.0000     -10.273372      -279.5527
  26   2.0000     -10.242684      -278.7176
  27   2.0000     -10.241563      -278.6871
  28   2.0000     -10.232652      -278.4446
  29   2.0000      -6.768464      -184.1793
  30   2.0000      -4.932152      -134.2107
  31   2.0000      -4.931508      -134.1932
  32   2.0000      -4.929528      -134.1393
  33   2.0000      -1.242758       -33.8172
  34   2.0000      -1.203766       -32.7562
  35   2.0000      -1.144117       -31.1330
  36   2.0000      -1.141664       -31.0663
  37   2.0000      -1.119333       -30.4586
  38   2.0000      -1.088743       -29.6262
  39   2.0000      -1.051730       -28.6190
  40   2.0000      -1.038464       -28.2580
  41   2.0000      -0.988217       -26.8907
  42   2.0000      -0.949666       -25.8417
  43   2.0000      -0.909739       -24.7553
  44   2.0000      -0.898040       -24.4369
  45   2.0000      -0.871995       -23.7282
  46   2.0000      -0.857356       -23.3298
  47   2.0000      -0.852934       -23.2095
  48   2.0000      -0.815374       -22.1875
  49   2.0000      -0.809657       -22.0319
  50   2.0000      -0.788359       -21.4523
  51   2.0000      -0.775339       -21.0980
  52   2.0000      -0.762762       -20.7558
  53   2.0000      -0.755106       -20.5475
  54   2.0000      -0.729909       -19.8618
  55   2.0000      -0.728073       -19.8119
  56   2.0000      -0.701545       -19.0900
  57   2.0000      -0.680066       -18.5055
  58   2.0000      -0.647265       -17.6130
  59   2.0000      -0.644869       -17.5478
  60   2.0000      -0.639767       -17.4089
  61   2.0000      -0.635803       -17.3011
  62   2.0000      -0.623559       -16.9679
  63   2.0000      -0.620279       -16.8786
  64   2.0000      -0.613473       -16.6934
  65   2.0000      -0.595799       -16.2125
  66   2.0000      -0.589317       -16.0361
  67   2.0000      -0.587024       -15.9737
  68   2.0000      -0.574790       -15.6408
  69   2.0000      -0.568212       -15.4618
  70   2.0000      -0.564268       -15.3545
  71   2.0000      -0.559468       -15.2239
  72   2.0000      -0.550876       -14.9901
  73   2.0000      -0.542317       -14.7572
  74   2.0000      -0.539203       -14.6725
  75   2.0000      -0.529446       -14.4070
  76   2.0000      -0.527549       -14.3553
  77   2.0000      -0.526051       -14.3146
  78   2.0000      -0.517371       -14.0784
  79   2.0000      -0.507195       -13.8015
  80   2.0000      -0.504644       -13.7321
  81   2.0000      -0.500277       -13.6132
  82   2.0000      -0.487905       -13.2766
  83   2.0000      -0.483052       -13.1445
  84   2.0000      -0.481991       -13.1156
  85   2.0000      -0.480833       -13.0841
  86   2.0000      -0.474217       -12.9041
  87   2.0000      -0.471099       -12.8192
  88   2.0000      -0.463432       -12.6106
  89   2.0000      -0.461955       -12.5704
  90   2.0000      -0.457860       -12.4590
  91   2.0000      -0.455862       -12.4046
  92   2.0000      -0.452356       -12.3092
  93   2.0000      -0.448052       -12.1921
  94   2.0000      -0.439211       -11.9515
  95   2.0000      -0.433534       -11.7970
  96   2.0000      -0.425959       -11.5909
  97   2.0000      -0.418745       -11.3946
  98   2.0000      -0.413557       -11.2534
  99   2.0000      -0.406924       -11.0730
 100   2.0000      -0.406424       -11.0594
 101   2.0000      -0.393628       -10.7112
 102   2.0000      -0.389872       -10.6090
 103   2.0000      -0.378741       -10.3061
 104   2.0000      -0.347456        -9.4548
 105   2.0000      -0.340948        -9.2777
 106   2.0000      -0.337860        -9.1936
 107   2.0000      -0.327736        -8.9182
 108   2.0000      -0.234238        -6.3739
 109   0.0000      -0.100252        -2.7280
 110   0.0000      -0.070191        -1.9100
 111   0.0000      -0.015152        -0.4123
 112   0.0000       0.029625         0.8061
 113   0.0000       0.054560         1.4847

----------------------------------------------------------------------------------------------------
                     ABSORPTION SPECTRUM VIA TRANSITION ELECTRIC DIPOLE MOMENTS
----------------------------------------------------------------------------------------------------
     Transition      Energy     Energy  Wavelength fosc(D2)      D2        DX        DY        DZ
                      (eV)      (cm-1)    (nm)                 (au**2)    (au)      (au)      (au)
----------------------------------------------------------------------------------------------------
  0-1A  ->  1-1A    0.689672    5562.6  1797.7   0.000066086   0.00391  -0.01127  -0.05897  -0.01751
  0-1A  ->  2-1A    2.579173   20802.4   480.7   0.276656960   4.37828   1.59615   1.33345   0.22914
  0-1A  ->  3-1A    3.268844   26365.0   379.3   0.009258013   0.11560  -0.18363  -0.25248   0.13466

MULLIKEN ATOMIC CHARGES
-----------------------
   0 C :   -0.113314
   1 C :   -0.100330
   2 C :   -0.103975
   3 C :   -0.119990
   4 C :    0.283649
   5 C :    0.214024
   6 O :   -0.499077
   7 C :    0.089209
   8 C :   -0.201561
   9 C :   -0.255514
  10 C :    0.042631
  11 C :    0.297987
  12 N :   -0.309635
  13 C :    0.086190
  14 C :   -0.084868
  15 C :   -0.134480
  16 C :    0.706306
  17 O :   -0.602097
  18 N :   -0.222863
  19 C :   -0.288716
  20 C :   -0.299843
  21 H :    0.157678
  22 H :    0.167984
  23 H :    0.155164
  24 H :    0.160445
  25 H :    0.161452
  26 H :    0.154576
  27 H :    0.143253
  28 H :    0.149476
  29 H :    0.176002
  30 H :    0.136647
  31 H :    0.140645
  32 H :    0.199049
  33 H :    0.161939
  34 H :    0.166957
  35 P :    1.634195
  36 O :   -0.773467
  37 O :   -0.558737
  38 O :   -0.566659
  39 C :   -0.026343
  40 C :   -0.042569
  41 C :   -0.405938
  42 H :    0.156627
  43 H :    0.158316
  44 H :    0.146975
  45 H :    0.148982
  46 H :    0.157539
  47 C :   -0.386505
  48 H :    0.148935
  49 H :    0.153730
  50 H :    0.156023
  51 H :    0.138338
  52 H :    0.145560
Sum of atomic charges:    1.0000000

LOEWDIN ATOMIC CHARGES
----------------------
   0 C :   -0.039783
   1 C :   -0.130432
   2 C :   -0.049562
   3 C :   -0.103062
   4 C :   -0.092113
   5 C :   -0.047299
   6 O :    0.198233
   7 C :   -0.056893
   8 C :   -0.082819
   9 C :   -0.087144
  10 C :   -0.021268
  11 C :   -0.075916
  12 N :    0.090715
  13 C :   -0.060110
  14 C :   -0.099590
  15 C :    0.003927
  16 C :   -0.339579
  17 O :   -0.071395
  18 N :    0.089355
  19 C :   -0.215871
  20 C :   -0.220192
  21 H :    0.120843
  22 H :    0.122472
  23 H :    0.116719
  24 H :    0.122639
  25 H :    0.119020
  26 H :    0.118988
  27 H :    0.162525
  28 H :    0.159230
  29 H :    0.152601
  30 H :    0.156378
  31 H :    0.154216
  32 H :    0.163023
  33 H :    0.163408
  34 H :    0.167098
  35 P :    0.779478
  36 O :   -0.412780
  37 O :   -0.101109
  38 O :   -0.104754
  39 C :   -0.217709
  40 C :   -0.216682
  41 C :   -0.282219
  42 H :    0.131185
  43 H :    0.126281
  44 H :    0.118904
  45 H :    0.119214
  46 H :    0.131078
  47 C :   -0.281585
  48 H :    0.124110
  49 H :    0.129462
  50 H :    0.129821
  51 H :    0.119815
  52 H :    0.119126

  Mayer bond orders larger than 0.100000
B(  0-C ,  1-C ) :   0.9166 B(  0-C ,  2-C ) :   0.9105 B(  0-C ,  3-C ) :   0.9430
B(  1-C ,  2-C ) :   0.8990 B(  1-C ,  4-C ) :   0.9886 B(  1-C , 28-H ) :   0.9747
B(  2-C ,  3-C ) :   0.8071 B(  2-C , 29-H ) :   0.9240 B(  3-C ,  7-C ) :   1.0101
B(  3-C , 27-H ) :   0.9904 B(  4-C ,  5-C ) :   1.3138 B(  4-C ,  6-O ) :   0.9442
B(  5-C ,  7-C ) :   1.1701 B(  5-C , 10-C ) :   1.1458 B(  6-O , 16-C ) :   0.9279
B(  7-C ,  8-C ) :   1.3026 B(  8-C ,  9-C ) :   1.4728 B(  8-C , 30-H ) :   0.9867
B(  9-C , 11-C ) :   1.1529 B(  9-C , 31-H ) :   0.9885 B( 10-C , 11-C ) :   1.3090
B( 10-C , 12-N ) :   1.1219 B( 11-C , 15-C ) :   1.2912 B( 12-N , 13-C ) :   1.3276
B( 12-N , 35-P ) :   0.7383 B( 13-C , 14-C ) :   1.4154 B( 13-C , 32-H ) :   0.9320
B( 14-C , 15-C ) :   1.4183 B( 14-C , 33-H ) :   0.9645 B( 15-C , 34-H ) :   0.9593
B( 16-C , 17-O ) :   1.8158 B( 16-C , 18-N ) :   1.3934 B( 18-N , 19-C ) :   0.9233
B( 18-N , 20-C ) :   0.9330 B( 19-C , 24-H ) :   0.9641 B( 19-C , 25-H ) :   0.9612
B( 19-C , 26-H ) :   0.9602 B( 20-C , 21-H ) :   0.9594 B( 20-C , 22-H ) :   0.9613
B( 20-C , 23-H ) :   0.9621 B( 35-P , 36-O ) :   1.7452 B( 35-P , 37-O ) :   1.0762
B( 35-P , 38-O ) :   1.0419 B( 37-O , 39-C ) :   0.8197 B( 38-O , 40-C ) :   0.8540
B( 39-C , 41-C ) :   0.9911 B( 39-C , 42-H ) :   0.9584 B( 39-C , 43-H ) :   0.9671
B( 40-C , 47-C ) :   0.9933 B( 40-C , 48-H ) :   0.9688 B( 40-C , 49-H ) :   0.9614
B( 41-C , 44-H ) :   0.9682 B( 41-C , 45-H ) :   0.9675 B( 41-C , 46-H ) :   0.9626
B( 47-C , 50-H ) :   0.9609 B( 47-C , 51-H ) :   0.9717 B( 47-C , 52-H ) :   0.9690

FINAL SINGLE POINT ENERGY     -1641.259674837121

DIPOLE MOMENT
-------------

Method             : TDA/CIS
Type of density    : Electron Density
Level              : Relaxed density
State              :   1
Multiplicity       :   1
Irrep              :   0
Energy             :     0.0000000000000000 Eh
Relativity type    :
Basis              : AO
                                X                 Y                 Z
Electronic contribution:     -0.965406591     -13.668312902       9.199395886
Nuclear contribution   :      6.121761537      14.752116099      -8.477848871
                        -----------------------------------------
Total Dipole Moment    :      5.156354946       1.083803197       0.721547014
                        -----------------------------------------
Magnitude (a.u.)       :      5.318200428
Magnitude (Debye)      :     13.517791212

VIBRATIONAL FREQUENCIES
-----------------------

Scaling factor for frequencies =  1.000000000  (already applied!)

     0:       0.00 cm**-1
     1:       0.00 cm**-1
     2:       0.00 cm**-1
     3:       0.00 cm**-1
     4:       0.00 cm**-1
     5:       0.00 cm**-1
     6:      19.68 cm**-1
     7:      26.52 cm**-1
     8:      39.23 cm**-1
     9:      42.71 cm**-1
    10:      47.55 cm**-1
    11:      59.13 cm**-1
    12:      69.76 cm**-1
    13:      72.69 cm**-1
    14:      84.54 cm**-1
    15:      99.42 cm**-1
    16:     105.00 cm**-1
    17:     108.32 cm**-1
    18:     125.08 cm**-1
    19:     129.12 cm**-1
    20:     143.17 cm**-1
    21:     155.21 cm**-1
    22:     178.23 cm**-1
    23:     189.76 cm**-1
    24:     204.48 cm**-1
    25:     224.62 cm**-1
    26:     231.03 cm**-1
    27:     236.62 cm**-1
    28:     248.27 cm**-1
    29:     254.64 cm**-1
    30:     267.69 cm**-1
    31:     292.67 cm**-1
    32:     310.70 cm**-1
    33:     314.82 cm**-1
    34:     353.16 cm**-1
    35:     380.35 cm**-1
    36:     386.98 cm**-1
    37:     391.70 cm**-1
    38:     414.02 cm**-1
    39:     420.80 cm**-1
    40:     441.57 cm**-1
    41:     449.36 cm**-1
    42:     462.07 cm**-1
    43:     488.92 cm**-1
    44:     502.66 cm**-1
    45:     511.49 cm**-1
    46:     525.20 cm**-1
    47:     544.19 cm**-1
    48:     563.44 cm**-1
    49:     570.63 cm**-1
    50:     606.31 cm**-1
    51:     618.54 cm**-1
    52:     637.22 cm**-1
    53:     656.61 cm**-1
    54:     663.83 cm**-1
    55:     708.27 cm**-1
    56:     723.25 cm**-1
    57:     752.62 cm**-1
    58:     762.84 cm**-1
    59:     780.97 cm**-1
    60:     785.32 cm**-1
    61:     788.15 cm**-1
    62:     800.75 cm**-1
    63:     809.44 cm**-1
    64:     817.26 cm**-1
    65:     820.76 cm**-1
    66:     836.05 cm**-1
    67:     854.15 cm**-1
    68:     866.55 cm**-1
    69:     904.86 cm**-1
    70:     937.71 cm**-1
    71:     941.47 cm**-1
    72:     953.70 cm**-1
    73:     977.96 cm**-1
    74:     978.79 cm**-1
    75:     979.75 cm**-1
    76:     995.18 cm**-1
    77:    1012.83 cm**-1
    78:    1026.65 cm**-1
    79:    1038.65 cm**-1
    80:    1039.31 cm**-1
    81:    1063.28 cm**-1
    82:    1066.65 cm**-1
    83:    1081.30 cm**-1
    84:    1097.46 cm**-1
    85:    1118.27 cm**-1
    86:    1119.47 cm**-1
    87:    1132.56 cm**-1
    88:    1135.17 cm**-1
    89:    1139.43 cm**-1
    90:    1167.72 cm**-1
    91:    1170.64 cm**-1
    92:    1179.18 cm**-1
    93:    1182.01 cm**-1
    94:    1186.99 cm**-1
    95:    1190.95 cm**-1
    96:    1228.34 cm**-1
    97:    1238.43 cm**-1
    98:    1256.11 cm**-1
    99:    1266.55 cm**-1
   100:    1275.78 cm**-1
   101:    1286.20 cm**-1
   102:    1304.70 cm**-1
   103:    1305.72 cm**-1
   104:    1317.78 cm**-1
   105:    1319.54 cm**-1
   106:    1346.27 cm**-1
   107:    1363.87 cm**-1
   108:    1408.33 cm**-1
   109:    1411.49 cm**-1
   110:    1423.76 cm**-1
   111:    1423.81 cm**-1
   112:    1424.21 cm**-1
   113:    1444.66 cm**-1
   114:    1449.22 cm**-1
   115:    1467.16 cm**-1
   116:    1468.01 cm**-1
   117:    1478.73 cm**-1
   118:    1479.00 cm**-1
   119:    1483.33 cm**-1
   120:    1486.65 cm**-1
   121:    1487.55 cm**-1
   122:    1488.17 cm**-1
   123:    1490.53 cm**-1
   124:    1496.86 cm**-1
   125:    1499.03 cm**-1
   126:    1511.73 cm**-1
   127:    1513.88 cm**-1
   128:    1530.20 cm**-1
   129:    1559.16 cm**-1
   130:    1562.85 cm**-1
   131:    1625.98 cm**-1
   132:    1635.03 cm**-1
   133:    1742.10 cm**-1
   134:    2449.25 cm**-1
   135:    3050.54 cm**-1
   136:    3050.85 cm**-1
   137:    3052.48 cm**-1
   138:    3053.85 cm**-1
   139:    3106.21 cm**-1
   140:    3110.14 cm**-1
   141:    3113.76 cm**-1
   142:    3117.23 cm**-1
   143:    3126.08 cm**-1
   144:    3127.62 cm**-1
   145:    3130.93 cm**-1
   146:    3136.97 cm**-1
   147:    3171.21 cm**-1
   148:    3177.62 cm**-1
   149:    3193.96 cm**-1
   150:    3195.36 cm**-1
   151:    3204.53 cm**-1
   152:    3209.06 cm**-1
   153:    3219.32 cm**-1
   154:    3232.11 cm**-1
   155:    3234.30 cm**-1
   156:    3248.82 cm**-1
   157:    3250.83 cm**-1
   158:    3266.77 cm**-1

IR SPECTRUM
-----------

 Mode   freq       eps      Int      T**2         TX        TY        TZ
       cm**-1   L/(mol*cm) km/mol    a.u.
----------------------------------------------------------------------------
  6:     19.68   0.000099    0.50  0.001574  ( 0.002746  0.026247  0.029628)
  7:     26.52   0.000607    3.07  0.007139  ( 0.026928  0.079997 -0.003839)
  8:     39.23   0.000019    0.10  0.000154  ( 0.004527  0.007549  0.008756)
  9:     42.71   0.000122    0.62  0.000894  (-0.005880  0.028157 -0.008179)
 10:     47.55   0.001058    5.35  0.006947  (-0.016751 -0.046319 -0.067241)
 11:     59.13   0.000286    1.44  0.001508  ( 0.034903  0.016977 -0.001203)
 12:     69.76   0.000515    2.60  0.002302  ( 0.029292 -0.005448 -0.037602)
 13:     72.69   0.000146    0.74  0.000628  ( 0.020330  0.012855 -0.007030)
 14:     84.54   0.000573    2.90  0.002117  (-0.038622 -0.023817  0.007606)
 15:     99.42   0.000196    0.99  0.000614  (-0.011317 -0.017895  0.012871)
 16:    105.00   0.000330    1.67  0.000981  ( 0.015565  0.025658  0.008946)
 17:    108.32   0.000713    3.60  0.002053  (-0.010559 -0.034612 -0.027265)
 18:    125.08   0.000501    2.53  0.001249  (-0.006494 -0.000069 -0.034739)
 19:    129.12   0.000778    3.93  0.001879  (-0.033292  0.025712 -0.010489)
 20:    143.17   0.000299    1.51  0.000651  ( 0.001855  0.015898 -0.019876)
 21:    155.21   0.002001   10.11  0.004024  (-0.030234  0.002788 -0.055695)
 22:    178.23   0.000243    1.23  0.000426  (-0.010023  0.014836  0.010282)
 23:    189.76   0.001643    8.30  0.002702  ( 0.002836  0.039016 -0.034231)
 24:    204.48   0.000156    0.79  0.000239  ( 0.003117 -0.013594 -0.006639)
 25:    224.62   0.001435    7.25  0.001993  (-0.014967  0.039790  0.013643)
 26:    231.03   0.000480    2.42  0.000648  (-0.009239 -0.020385 -0.012131)
 27:    236.62   0.007319   36.99  0.009653  (-0.032661 -0.089131 -0.025341)
 28:    248.27   0.000067    0.34  0.000084  (-0.002186 -0.006933  0.005555)
 29:    254.64   0.000936    4.73  0.001148  (-0.014053 -0.027923 -0.013050)
 30:    267.69   0.000670    3.39  0.000781  (-0.007464 -0.026909  0.001058)
 31:    292.67   0.002984   15.08  0.003182  (-0.001257 -0.046067 -0.032530)
 32:    310.70   0.001196    6.04  0.001201  (-0.031090  0.015303  0.000473)
 33:    314.82   0.000383    1.93  0.000379  ( 0.003637  0.017720  0.007230)
 34:    353.16   0.013440   67.92  0.011876  (-0.059474 -0.004606 -0.091200)
 35:    380.35   0.000294    1.49  0.000241  (-0.006398  0.014152  0.000042)
 36:    386.98   0.004897   24.75  0.003949  (-0.056586 -0.024862  0.011366)
 37:    391.70   0.005224   26.40  0.004162  (-0.029339 -0.013143 -0.055932)
 38:    414.02   0.013158   66.49  0.009918  (-0.029523 -0.083311  0.045882)
 39:    420.80   0.001936    9.78  0.001436  ( 0.034258 -0.002705  0.015962)
 40:    441.57   0.004565   23.07  0.003226  ( 0.002454 -0.017888 -0.053854)
 41:    449.36   0.003018   15.25  0.002096  (-0.013904  0.014765 -0.041047)
 42:    462.07   0.000999    5.05  0.000675  ( 0.001721 -0.023925  0.009975)
 43:    488.92   0.002533   12.80  0.001617  ( 0.008617 -0.015593 -0.036044)
 44:    502.66   0.007062   35.69  0.004384  (-0.021223  0.039017 -0.049109)
 45:    511.49   0.003975   20.09  0.002425  (-0.011205 -0.044953  0.016698)
 46:    525.20   0.016839   85.10  0.010005  (-0.022248 -0.086626 -0.044790)
 47:    544.19   0.049966  252.51  0.028653  ( 0.075181 -0.150863  0.015531)
 48:    563.44   0.010173   51.41  0.005634  ( 0.050694  0.045482  0.031558)
 49:    570.63   0.013502   68.24  0.007384  (-0.048569  0.070017  0.011080)
 50:    606.31   0.004896   24.74  0.002520  ( 0.032433  0.034444  0.016781)
 51:    618.54   0.005548   28.04  0.002799  (-0.011493 -0.023745  0.045860)
 52:    637.22   0.001816    9.18  0.000889  ( 0.006304  0.029140 -0.000628)
 53:    656.61   0.016345   82.60  0.007768  (-0.084152  0.010033  0.024206)
 54:    663.83   0.004545   22.97  0.002136  (-0.032571  0.026186 -0.019743)
 55:    708.27   0.004064   20.54  0.001791  (-0.041914  0.001514  0.005612)
 56:    723.25   0.005531   27.95  0.002386  ( 0.037065  0.010920 -0.029888)
 57:    752.62   0.003391   17.14  0.001406  ( 0.020623  0.004091  0.031046)
 58:    762.84   0.013019   65.79  0.005326  ( 0.020485 -0.045141  0.053559)
 59:    780.97   0.045536  230.12  0.018196  (-0.058147 -0.121693  0.002286)
 60:    785.32   0.003836   19.39  0.001524  (-0.032994 -0.004980  0.020273)
 61:    788.15   0.048756  246.39  0.019304  ( 0.038615  0.126719  0.041900)
 62:    800.75   0.013169   66.55  0.005132  (-0.004487 -0.047708 -0.053255)
 63:    809.44   0.019270   97.38  0.007429  (-0.006333 -0.053821 -0.067024)
 64:    817.26   0.000404    2.04  0.000154  ( 0.001892 -0.009659 -0.007582)
 65:    820.76   0.002307   11.66  0.000877  (-0.007737 -0.026201  0.011439)
 66:    836.05   0.013872   70.10  0.005178  ( 0.023021 -0.009989  0.067440)
 67:    854.15   0.007271   36.75  0.002657  (-0.038047 -0.034344  0.005428)
 68:    866.55   0.005511   27.85  0.001985  ( 0.021158 -0.025312 -0.029940)
 69:    904.86   0.051482  260.17  0.017755  ( 0.053387  0.122084 -0.000444)
 70:    937.71   0.093214  471.06  0.031021  (-0.149522 -0.079814 -0.047894)
 71:    941.47   0.067092  339.06  0.022239  (-0.086217 -0.121610 -0.004044)
 72:    953.70   0.013516   68.30  0.004423  ( 0.021387 -0.059904  0.019408)
 73:    977.96   0.086940  439.36  0.027742  ( 0.037147  0.053225  0.153393)
 74:    978.79   0.007611   38.46  0.002426  (-0.047254 -0.007588  0.011657)
 75:    979.75   0.002805   14.18  0.000893  (-0.028582  0.008542  0.001894)
 76:    995.18   0.002247   11.36  0.000705  (-0.021823  0.014473 -0.004346)
 77:   1012.83   0.155759  787.14  0.047991  ( 0.000416 -0.030580  0.216923)
 78:   1026.65   0.018984   95.94  0.005770  (-0.053113  0.054296  0.001176)
 79:   1038.65   0.026078  131.79  0.007835  (-0.015345  0.087154 -0.001970)
 80:   1039.31   0.062278  314.73  0.018700  ( 0.020979 -0.133785  0.019001)
 81:   1063.28   0.012623   63.79  0.003705  ( 0.016238 -0.045841  0.036603)
 82:   1066.65   0.032129  162.37  0.009400  (-0.016346 -0.070617 -0.064388)
 83:   1081.30   0.005769   29.15  0.001665  ( 0.022985 -0.016380  0.029466)
 84:   1097.46   0.014174   71.63  0.004031  ( 0.012983 -0.048777  0.038507)
 85:   1118.27   0.003626   18.33  0.001012  ( 0.026448  0.017264  0.003802)
 86:   1119.47   0.002143   10.83  0.000597  (-0.016227  0.018195  0.001753)
 87:   1132.56   0.030043  151.83  0.008278  ( 0.011128  0.027869 -0.085893)
 88:   1135.17   0.001847    9.34  0.000508  ( 0.016379  0.003130 -0.015158)
 89:   1139.43   0.206485  1043.49  0.056551  ( 0.000303 -0.080948  0.223604)
 90:   1167.72   0.005063   25.59  0.001353  ( 0.027551  0.009807 -0.022314)
 91:   1170.64   0.038780  195.98  0.010338  ( 0.074149  0.060609  0.034153)
 92:   1179.18   0.008857   44.76  0.002344  ( 0.004626  0.028488 -0.038872)
 93:   1182.01   0.000480    2.43  0.000127  ( 0.007239 -0.005792  0.006394)
 94:   1186.99   0.005673   28.67  0.001492  (-0.002713 -0.012289  0.036513)
 95:   1190.95   0.006237   31.52  0.001634  ( 0.004672  0.034675  0.020248)
 96:   1228.34   0.066319  335.15  0.016849  (-0.003280  0.044139 -0.122023)
 97:   1238.43   0.064582  326.37  0.016274  ( 0.073084  0.099595 -0.031831)
 98:   1256.11   0.034375  173.72  0.008540  ( 0.075096  0.032567  0.042895)
 99:   1266.55   0.030259  152.91  0.007455  (-0.041902 -0.050481  0.056136)
100:   1275.78   0.037728  190.66  0.009228  ( 0.048159 -0.040521  0.072575)
101:   1286.20   0.004932   24.92  0.001197  ( 0.013762 -0.008327  0.030624)
102:   1304.70   0.084373  426.39  0.020181  (-0.098385 -0.095243  0.037817)
103:   1305.72   0.014682   74.19  0.003509  ( 0.011975  0.047940 -0.032669)
104:   1317.78   0.002294   11.59  0.000543  ( 0.006425  0.016129  0.015548)
105:   1319.54   0.006879   34.76  0.001627  (-0.022246 -0.025401  0.022062)
106:   1346.27   0.048813  246.68  0.011315  (-0.049637 -0.077864  0.052803)
107:   1363.87   0.050614  255.78  0.011581  ( 0.073713  0.076831 -0.015630)
108:   1408.33   0.001110    5.61  0.000246  ( 0.014741  0.000162  0.005351)
109:   1411.49   0.003073   15.53  0.000679  (-0.008310 -0.008321  0.023263)
110:   1423.76   0.013599   68.72  0.002981  (-0.010275 -0.001170  0.053607)
111:   1423.81   0.060644  306.47  0.013292  (-0.026384  0.021879 -0.110077)
112:   1424.21   0.012896   65.17  0.002826  (-0.032015  0.011841 -0.040750)
113:   1444.66   0.004680   23.65  0.001011  ( 0.030475 -0.008154 -0.003955)
114:   1449.22   0.012754   64.45  0.002746  ( 0.045154  0.009613  0.024798)
115:   1467.16   0.017018   86.00  0.003620  (-0.044488  0.016700 -0.036900)
116:   1468.01   0.006116   30.91  0.001300  (-0.025986 -0.020037 -0.014944)
117:   1478.73   0.002982   15.07  0.000629  ( 0.007976 -0.012441 -0.020271)
118:   1479.00   0.001961    9.91  0.000414  ( 0.007069  0.017406 -0.007801)
119:   1483.33   0.001376    6.95  0.000290  ( 0.002708 -0.006220  0.015604)
120:   1486.65   0.007747   39.15  0.001626  (-0.026174 -0.010956 -0.028655)
121:   1487.55   0.027534  139.14  0.005776  ( 0.042896  0.021452  0.058956)
122:   1488.17   0.007674   38.78  0.001609  (-0.028220 -0.011090 -0.026266)
123:   1490.53   0.007383   37.31  0.001546  ( 0.012710 -0.012512 -0.035037)
124:   1496.86   0.007937   40.11  0.001655  ( 0.016154 -0.014482  0.034410)
125:   1499.03   0.085894  434.07  0.017881  (-0.037318 -0.089571  0.092009)
126:   1511.73   0.004246   21.46  0.000877  ( 0.015041  0.022464 -0.012071)
127:   1513.88   0.003064   15.48  0.000632  ( 0.023801 -0.007791  0.002092)
128:   1530.20   0.009434   47.68  0.001924  ( 0.030057  0.006445  0.031289)
129:   1559.16   0.036015  182.00  0.007208  (-0.030860 -0.076385  0.020526)
130:   1562.85   0.483148  2441.63  0.096473  ( 0.230046  0.186862  0.092923)
131:   1625.98   0.130690  660.45  0.025082  ( 0.101832 -0.031223  0.117208)
132:   1635.03   0.115189  582.12  0.021985  ( 0.125827  0.057902  0.052913)
133:   1742.10   0.234856  1186.86  0.042070  (-0.189011  0.005320  0.079477)
134:   2449.25   0.004198   21.21  0.000535  ( 0.012059 -0.010715  0.016571)
135:   3050.54   0.003195   16.14  0.000327  (-0.007544  0.002918 -0.016167)
136:   3050.85   0.002937   14.84  0.000300  (-0.015077  0.003342 -0.007868)
137:   3052.48   0.002097   10.60  0.000214  (-0.003857  0.004760 -0.013297)
138:   3053.85   0.010076   50.92  0.001030  ( 0.023397  0.007736 -0.020551)
139:   3106.21   0.002214   11.19  0.000222  ( 0.010335 -0.010203 -0.003385)
140:   3110.14   0.002178   11.01  0.000219  (-0.010379 -0.009790  0.003873)
141:   3113.76   0.007147   36.12  0.000716  ( 0.004902  0.024216  0.010287)
142:   3117.23   0.000209    1.06  0.000021  (-0.000598  0.003200  0.003219)
143:   3126.08   0.005389   27.23  0.000538  ( 0.011183  0.015880 -0.012678)
144:   3127.62   0.005087   25.71  0.000508  ( 0.013149 -0.015972 -0.008922)
145:   3130.93   0.002596   13.12  0.000259  ( 0.012629  0.009198 -0.003824)
146:   3136.97   0.002478   12.52  0.000247  ( 0.003197  0.011428  0.010282)
147:   3171.21   0.002465   12.46  0.000243  ( 0.005381  0.014437 -0.002282)
148:   3177.62   0.002308   11.66  0.000227  (-0.003175  0.006240  0.013329)
149:   3193.96   0.000352    1.78  0.000034  (-0.005341  0.001824 -0.001584)
150:   3195.36   0.002332   11.79  0.000228  ( 0.006514  0.010470 -0.008703)
151:   3204.53   0.000901    4.55  0.000088  ( 0.002610 -0.005565  0.007068)
152:   3209.06   0.000152    0.77  0.000015  (-0.003058 -0.000254 -0.002307)
153:   3219.32   0.000118    0.59  0.000011  ( 0.002966 -0.000677  0.001464)
154:   3232.11   0.000440    2.22  0.000042  (-0.004909  0.001161 -0.004125)
155:   3234.30   0.000452    2.29  0.000044  (-0.003567 -0.004653 -0.003043)
156:   3248.82   0.001585    8.01  0.000152  ( 0.011297  0.000216  0.004962)
157:   3250.83   0.000292    1.48  0.000028  ( 0.003538 -0.002540  0.003012)
158:   3266.77   0.006310   31.89  0.000603  (-0.009633 -0.021691  0.006284)

--------------------------
THERMOCHEMISTRY AT 298.15K
--------------------------

Temperature         ...   298.15 K
Pressure            ...     1.00 atm
Total Mass          ...   415.41 AMU
Quasi RRHO          ...     True
Cut-Off Frequency   ...     1.00 cm^-1

Throughout the following assumptions are being made:
  (1) The electronic state is orbitally nondegenerate
  (2) There are no thermally accessible electronically excited states
  (3) Hindered rotations indicated by low frequency modes are not
      treated as such but are treated as vibrations and this may
      cause some error
  (4) All equations used are the standard statistical mechanics
      equations for an ideal gas
  (5) All vibrations are strictly harmonic

freq.      19.68  E(vib)   ...       0.56
freq.      26.52  E(vib)   ...       0.56
freq.      39.23  E(vib)   ...       0.54
freq.      42.71  E(vib)   ...       0.53
freq.      47.55  E(vib)   ...       0.53
freq.      59.13  E(vib)   ...       0.51
freq.      69.76  E(vib)   ...       0.50
freq.      72.69  E(vib)   ...       0.49
freq.      84.54  E(vib)   ...       0.48
freq.      99.42  E(vib)   ...       0.46
freq.     105.00  E(vib)   ...       0.46
freq.     108.32  E(vib)   ...       0.45
freq.     125.08  E(vib)   ...       0.43
freq.     129.12  E(vib)   ...       0.43
freq.     143.17  E(vib)   ...       0.41
freq.     155.21  E(vib)   ...       0.40
freq.     178.23  E(vib)   ...       0.37
freq.     189.76  E(vib)   ...       0.36
freq.     204.48  E(vib)   ...       0.35
freq.     224.62  E(vib)   ...       0.33
freq.     231.03  E(vib)   ...       0.32
freq.     236.62  E(vib)   ...       0.32
freq.     248.27  E(vib)   ...       0.31
freq.     254.64  E(vib)   ...       0.30
freq.     267.69  E(vib)   ...       0.29
freq.     292.67  E(vib)   ...       0.27
freq.     310.70  E(vib)   ...       0.26
freq.     314.82  E(vib)   ...       0.25
freq.     353.16  E(vib)   ...       0.22
freq.     380.35  E(vib)   ...       0.21
freq.     386.98  E(vib)   ...       0.20
freq.     391.70  E(vib)   ...       0.20
freq.     414.02  E(vib)   ...       0.19
freq.     420.80  E(vib)   ...       0.18
freq.     441.57  E(vib)   ...       0.17
freq.     449.36  E(vib)   ...       0.17
freq.     462.07  E(vib)   ...       0.16
freq.     488.92  E(vib)   ...       0.15
freq.     502.66  E(vib)   ...       0.14
freq.     511.49  E(vib)   ...       0.14
freq.     525.20  E(vib)   ...       0.13
freq.     544.19  E(vib)   ...       0.12
freq.     563.44  E(vib)   ...       0.11
freq.     570.63  E(vib)   ...       0.11
freq.     606.31  E(vib)   ...       0.10
freq.     618.54  E(vib)   ...       0.09
freq.     637.22  E(vib)   ...       0.09
freq.     656.61  E(vib)   ...       0.08
freq.     663.83  E(vib)   ...       0.08
freq.     708.27  E(vib)   ...       0.07
freq.     723.25  E(vib)   ...       0.07
freq.     752.62  E(vib)   ...       0.06
freq.     762.84  E(vib)   ...       0.06
freq.     780.97  E(vib)   ...       0.05
freq.     785.32  E(vib)   ...       0.05
freq.     788.15  E(vib)   ...       0.05
freq.     800.75  E(vib)   ...       0.05
freq.     809.44  E(vib)   ...       0.05
freq.     817.26  E(vib)   ...       0.05
freq.     820.76  E(vib)   ...       0.05
freq.     836.05  E(vib)   ...       0.04
freq.     854.15  E(vib)   ...       0.04
freq.     866.55  E(vib)   ...       0.04
freq.     904.86  E(vib)   ...       0.03
freq.     937.71  E(vib)   ...       0.03
freq.     941.47  E(vib)   ...       0.03
freq.     953.70  E(vib)   ...       0.03
freq.     977.96  E(vib)   ...       0.03
freq.     978.79  E(vib)   ...       0.03
freq.     979.75  E(vib)   ...       0.02
freq.     995.18  E(vib)   ...       0.02
freq.    1012.83  E(vib)   ...       0.02
freq.    1026.65  E(vib)   ...       0.02
freq.    1038.65  E(vib)   ...       0.02
freq.    1039.31  E(vib)   ...       0.02
freq.    1063.28  E(vib)   ...       0.02
freq.    1066.65  E(vib)   ...       0.02
freq.    1081.30  E(vib)   ...       0.02
freq.    1097.46  E(vib)   ...       0.02
freq.    1118.27  E(vib)   ...       0.01
freq.    1119.47  E(vib)   ...       0.01
freq.    1132.56  E(vib)   ...       0.01
freq.    1135.17  E(vib)   ...       0.01
freq.    1139.43  E(vib)   ...       0.01
freq.    1167.72  E(vib)   ...       0.01
freq.    1170.64  E(vib)   ...       0.01
freq.    1179.18  E(vib)   ...       0.01
freq.    1182.01  E(vib)   ...       0.01
freq.    1186.99  E(vib)   ...       0.01
freq.    1190.95  E(vib)   ...       0.01
freq.    1228.34  E(vib)   ...       0.01
freq.    1238.43  E(vib)   ...       0.01
freq.    1256.11  E(vib)   ...       0.01
freq.    1266.55  E(vib)   ...       0.01
freq.    1275.78  E(vib)   ...       0.01
freq.    1286.20  E(vib)   ...       0.01
freq.    1304.70  E(vib)   ...       0.01
freq.    1305.72  E(vib)   ...       0.01
freq.    1317.78  E(vib)   ...       0.01
freq.    1319.54  E(vib)   ...       0.01
freq.    1346.27  E(vib)   ...       0.01
freq.    1363.87  E(vib)   ...       0.01
freq.    1408.33  E(vib)   ...       0.00
freq.    1411.49  E(vib)   ...       0.00
freq.    1423.76  E(vib)   ...       0.00
freq.    1423.81  E(vib)   ...       0.00
freq.    1424.21  E(vib)   ...       0.00
freq.    1444.66  E(vib)   ...       0.00
freq.    1449.22  E(vib)   ...       0.00
freq.    1467.16  E(vib)   ...       0.00
freq.    1468.01  E(vib)   ...       0.00
freq.    1478.73  E(vib)   ...       0.00
freq.    1479.00  E(vib)   ...       0.00
freq.    1483.33  E(vib)   ...       0.00
freq.    1486.65  E(vib)   ...       0.00
freq.    1487.55  E(vib)   ...       0.00
freq.    1488.17  E(vib)   ...       0.00
freq.    1490.53  E(vib)   ...       0.00
freq.    1496.86  E(vib)   ...       0.00
freq.    1499.03  E(vib)   ...       0.00
freq.    1511.73  E(vib)   ...       0.00
freq.    1513.88  E(vib)   ...       0.00
freq.    1530.20  E(vib)   ...       0.00
freq.    1559.16  E(vib)   ...       0.00
freq.    1562.85  E(vib)   ...       0.00
freq.    1625.98  E(vib)   ...       0.00
freq.    1635.03  E(vib)   ...       0.00
freq.    1742.10  E(vib)   ...       0.00
freq.    2449.25  E(vib)   ...       0.00
freq.    3050.54  E(vib)   ...       0.00
freq.    3050.85  E(vib)   ...       0.00
freq.    3052.48  E(vib)   ...       0.00
freq.    3053.85  E(vib)   ...       0.00
freq.    3106.21  E(vib)   ...       0.00
freq.    3110.14  E(vib)   ...       0.00
freq.    3113.76  E(vib)   ...       0.00
freq.    3117.23  E(vib)   ...       0.00
freq.    3126.08  E(vib)   ...       0.00
freq.    3127.62  E(vib)   ...       0.00
freq.    3130.93  E(vib)   ...       0.00
freq.    3136.97  E(vib)   ...       0.00
freq.    3171.21  E(vib)   ...       0.00

Rotational constants in cm-1:     0.006345     0.006019     0.004089

                             ****ORCA TERMINATED NORMALLY****
TOTAL RUN TIME: 0 days 10 hours 7 minutes 34 seconds 143 msec
