                         Program Version 5.0.4 -  RELEASE  -
|  1> ! B3LYP/G OPT Def2-TZVP(-f) Def2-TZVP/C Def2/J RIJCOSX TightSCF CPCM(Water) AllPop SOSCF
|  2> %maxcore 3000
|  3> %tddft
|  4>     NRoots 5
|  5>     IRoot 1
|  6> end
|  7>
|  8> * xyz 0 1
|  9>    C       -6.51615       -1.52096        0.00263
| 10>    C       -6.58631       -2.65827       -0.99537
| 11>    C       -5.55071       -3.70833       -0.63276
| 12>    H       -6.39859       -2.27049       -1.99197
| 13>    H       -7.58141       -3.08697       -0.99087
| 14>    C       -4.19702       -3.08183       -0.37209
| 15>    H       -5.46084       -4.44946       -1.41773
| 16>    H       -5.87897       -4.23552        0.25907
| 17>    C       -4.08062       -1.70966       -0.03056
| 18>    N       -5.20021       -0.90994        0.00184
| 19>    H       -6.77323       -1.88595        0.99859
| 20>    H       -7.23227       -0.75149       -0.25199
| 21>    C       -5.12158        0.37425        0.67033
| 22>    C       -3.86776        1.11468        0.25582
| 23>    H       -5.14012        0.24768        1.75436
| 24>    H       -6.00080        0.94127        0.39705
| 25>    C       -2.63817        0.29586        0.61398
| 26>    H       -3.83133        2.08061        0.74518
| 27>    H       -3.90087        1.29019       -0.81483
| 28>    C       -2.81813       -1.15984        0.24048
| 29>    H       -2.44635        0.37179        1.68083
| 30>    H       -1.76474        0.69606        0.11629
| 31>    C       -3.06843       -3.84915       -0.44485
| 32>    C       -1.72213       -1.99520        0.16433
| 33>    C       -1.80452       -3.32935       -0.17687
| 34>    O       -0.51048       -1.45640        0.44511
| 35>    C        0.64726       -2.12350        0.40900
| 36>    C       -0.59082       -4.08868       -0.21916
| 37>    C        0.60107       -3.54223        0.05798
| 38>    O        1.63662       -1.50676        0.66086
| 39>    C        1.86902       -4.31225       -0.00028
| 40>    C        2.78667       -4.32358        1.04080
| 41>    C        2.17001       -5.08489       -1.11059
| 42>    N        3.25473       -5.82888       -1.22219
| 43>    C        4.11171       -5.83259       -0.22126
| 44>    C        3.92357       -5.09416        0.93153
| 45>    H        1.49897       -5.09375       -1.95052
| 46>    H        4.64849       -5.12892        1.72141
| 47>    H        4.98743       -6.44544       -0.33625
| 48>    H        2.60993       -3.74476        1.92655
| 49>    H       -3.15456       -4.88782       -0.70981
| 50>    H       -0.65704       -5.13072       -0.47361
| 51> *
| 52>
| 53>
| 54>                          ****END OF INPUT****
 Total Charge           Charge          ....    0
 Multiplicity           Mult            ....    1
 Number of Electrons    NEL             ....  168
FINAL SINGLE POINT ENERGY     -1033.198794372058
FINAL SINGLE POINT ENERGY     -1033.212241026710
FINAL SINGLE POINT ENERGY     -1033.215763115297
FINAL SINGLE POINT ENERGY     -1033.217236623443
FINAL SINGLE POINT ENERGY     -1033.217941475672
FINAL SINGLE POINT ENERGY     -1033.218193201483
FINAL SINGLE POINT ENERGY     -1033.218280502967
FINAL SINGLE POINT ENERGY     -1033.218331008493
FINAL SINGLE POINT ENERGY     -1033.218346942813
FINAL SINGLE POINT ENERGY     -1033.218361186915
FINAL SINGLE POINT ENERGY     -1033.218364863678
                    ***********************HURRAY********************

CARTESIAN COORDINATES (ANGSTROEM)
---------------------------------
  C     -6.561581   -1.481196   -0.143306
  C     -6.537991   -2.592804   -1.178141
  C     -5.564889   -3.677809   -0.734651
  H     -6.235911   -2.183030   -2.145506
  H     -7.545915   -2.994260   -1.288653
  C     -4.219506   -3.091444   -0.392938
  H     -5.446093   -4.439221   -1.507185
  H     -5.972764   -4.187166    0.146272
  C     -4.114213   -1.729730    0.033054
  N     -5.229268   -0.938757    0.103226
  H     -6.975828   -1.859097    0.803729
  H     -7.194972   -0.654599   -0.464729
  C     -5.173020    0.396835    0.686414
  C     -3.864242    1.091571    0.356229
  H     -5.294774    0.319988    1.777612
  H     -6.025216    0.957144    0.303800
  C     -2.691186    0.241198    0.826738
  H     -3.847077    2.068891    0.839517
  H     -3.804839    1.254440   -0.722795
  C     -2.836707   -1.188899    0.378993
  H     -2.631992    0.269468    1.921207
  H     -1.748556    0.647104    0.460789
  C     -3.077934   -3.855672   -0.477592
  C     -1.732445   -2.020938    0.297730
  C     -1.799182   -3.357221   -0.135368
  O     -0.525023   -1.477215    0.664691
  C      0.679566   -2.180084    0.597201
  C     -0.603391   -4.120126   -0.202564
  C      0.641857   -3.556465    0.149496
  O      1.657868   -1.517553    0.917370
  C      1.871190   -4.315661    0.046456
  C      3.077524   -3.997637    0.715432
  C      1.914519   -5.492371   -0.753384
  N      2.981265   -6.269128   -0.903387
  C      4.103370   -5.938691   -0.249075
  C      4.183725   -4.809795    0.566058
  H      1.042168   -5.787823   -1.322877
  H      5.106267   -4.580713    1.084246
  H      4.956722   -6.594606   -0.380232
  H      3.124774   -3.129760    1.352449
  H     -3.156014   -4.883219   -0.813531
  H     -0.678966   -5.159300   -0.482334

 Multiplicity           Mult            ....    1
 Number of Electrons    NEL             ....  168
 Basis Dimension        Dim             ....  684

ORBITAL ENERGIES
----------------

  NO   OCC          E(Eh)            E(eV)
   0   2.0000     -19.194419      -522.3067
   1   2.0000     -19.113421      -520.1026
   2   2.0000     -14.347592      -390.4178
   3   2.0000     -14.321174      -389.6990
   4   2.0000     -10.310162      -280.5538
   5   2.0000     -10.248411      -278.8734
   6   2.0000     -10.232812      -278.4490
   7   2.0000     -10.211415      -277.8667
   8   2.0000     -10.210490      -277.8416
   9   2.0000     -10.206834      -277.7421
  10   2.0000     -10.203540      -277.6524
  11   2.0000     -10.203288      -277.6456
  12   2.0000     -10.201859      -277.6067
  13   2.0000     -10.201374      -277.5935
  14   2.0000     -10.189673      -277.2751
  15   2.0000     -10.187015      -277.2028
  16   2.0000     -10.185017      -277.1484
  17   2.0000     -10.184594      -277.1369
  18   2.0000     -10.183008      -277.0937
  19   2.0000     -10.181119      -277.0423
  20   2.0000     -10.173944      -276.8471
  21   2.0000     -10.173082      -276.8236
  22   2.0000     -10.170302      -276.7480
  23   2.0000     -10.170144      -276.7437
  24   2.0000      -1.117324       -30.4039
  25   2.0000      -1.030481       -28.0408
  26   2.0000      -0.970206       -26.4007
  27   2.0000      -0.949515       -25.8376
  28   2.0000      -0.869728       -23.6665
  29   2.0000      -0.843889       -22.9634
  30   2.0000      -0.829140       -22.5620
  31   2.0000      -0.804336       -21.8871
  32   2.0000      -0.782347       -21.2887
  33   2.0000      -0.774262       -21.0687
  34   2.0000      -0.764880       -20.8134
  35   2.0000      -0.744676       -20.2637
  36   2.0000      -0.692992       -18.8573
  37   2.0000      -0.684889       -18.6368
  38   2.0000      -0.663041       -18.0423
  39   2.0000      -0.643933       -17.5223
  40   2.0000      -0.639242       -17.3947
  41   2.0000      -0.631168       -17.1750
  42   2.0000      -0.617775       -16.8105
  43   2.0000      -0.598557       -16.2876
  44   2.0000      -0.565114       -15.3775
  45   2.0000      -0.539838       -14.6897
  46   2.0000      -0.533320       -14.5124
  47   2.0000      -0.528442       -14.3796
  48   2.0000      -0.511092       -13.9075
  49   2.0000      -0.495803       -13.4915
  50   2.0000      -0.484262       -13.1774
  51   2.0000      -0.478957       -13.0331
  52   2.0000      -0.475359       -12.9352
  53   2.0000      -0.472191       -12.8490
  54   2.0000      -0.465845       -12.6763
  55   2.0000      -0.454055       -12.3555
  56   2.0000      -0.449933       -12.2433
  57   2.0000      -0.438482       -11.9317
  58   2.0000      -0.434427       -11.8213
  59   2.0000      -0.432380       -11.7656
  60   2.0000      -0.423787       -11.5318
  61   2.0000      -0.418692       -11.3932
  62   2.0000      -0.410724       -11.1764
  63   2.0000      -0.408247       -11.1090
  64   2.0000      -0.406095       -11.0504
  65   2.0000      -0.402264       -10.9462
  66   2.0000      -0.399538       -10.8720
  67   2.0000      -0.379547       -10.3280
  68   2.0000      -0.372746       -10.1429
  69   2.0000      -0.365515        -9.9462
  70   2.0000      -0.361232        -9.8296
  71   2.0000      -0.353908        -9.6303
  72   2.0000      -0.345276        -9.3954
  73   2.0000      -0.342900        -9.3308
  74   2.0000      -0.338588        -9.2135
  75   2.0000      -0.324869        -8.8401
  76   2.0000      -0.320863        -8.7311
  77   2.0000      -0.302174        -8.2226
  78   2.0000      -0.293335        -7.9821
  79   2.0000      -0.285357        -7.7650
  80   2.0000      -0.267395        -7.2762
  81   2.0000      -0.248849        -6.7715
  82   2.0000      -0.240279        -6.5383
  83   2.0000      -0.193326        -5.2607
  84   0.0000      -0.080742        -2.1971
  85   0.0000      -0.036842        -1.0025
  86   0.0000      -0.025481        -0.6934
  87   0.0000      -0.010380        -0.2825
  88   0.0000       0.003820         0.1039

MULLIKEN ATOMIC CHARGES
-----------------------
   0 C :   -0.113893
   1 C :   -0.163380
   2 C :   -0.234056
   3 H :    0.102730
   4 H :    0.117821
   5 C :    0.240923
   6 H :    0.127265
   7 H :    0.112258
   8 C :    0.000752
   9 N :   -0.138056
  10 H :    0.106485
  11 H :    0.132613
  12 C :   -0.115632
  13 C :   -0.151618
  14 H :    0.106837
  15 H :    0.134416
  16 C :   -0.275445
  17 H :    0.117625
  18 H :    0.103078
  19 C :    0.098876
  20 H :    0.113392
  21 H :    0.127177
  22 C :   -0.552945
  23 C :    0.093002
  24 C :    0.424807
  25 O :   -0.369986
  26 C :    0.422656
  27 C :   -0.287670
  28 C :    0.173793
  29 O :   -0.574666
  30 C :    0.146837
  31 C :   -0.196430
  32 C :   -0.033476
  33 N :   -0.501370
  34 C :    0.063956
  35 C :   -0.073850
  36 H :    0.118914
  37 H :    0.115483
  38 H :    0.123458
  39 H :    0.130297
  40 H :    0.091987
  41 H :    0.135039
Sum of atomic charges:   -0.0000000

LOEWDIN ATOMIC CHARGES
----------------------
   0 C :   -0.189392
   1 C :   -0.217521
   2 C :   -0.187041
   3 H :    0.129708
   4 H :    0.131779
   5 C :   -0.107738
   6 H :    0.136814
   7 H :    0.138040
   8 C :   -0.063709
   9 N :    0.126799
  10 H :    0.125998
  11 H :    0.130367
  12 C :   -0.187996
  13 C :   -0.216439
  14 H :    0.126561
  15 H :    0.130825
  16 C :   -0.189049
  17 H :    0.131993
  18 H :    0.130071
  19 C :   -0.088813
  20 H :    0.138563
  21 H :    0.135759
  22 C :   -0.063388
  23 C :   -0.091451
  24 C :   -0.132058
  25 O :    0.208235
  26 C :   -0.236627
  27 C :   -0.001196
  28 C :   -0.108253
  29 O :   -0.079031
  30 C :   -0.102520
  31 C :   -0.074800
  32 C :   -0.128779
  33 N :   -0.001711
  34 C :   -0.169796
  35 C :   -0.137354
  36 H :    0.133464
  37 H :    0.143298
  38 H :    0.130401
  39 H :    0.144467
  40 H :    0.149002
  41 H :    0.152521

  Mayer bond orders larger than 0.100000
B(  0-C ,  1-C ) :   1.0026 B(  0-C ,  9-N ) :   0.9492 B(  0-C , 10-H ) :   0.9482
B(  0-C , 11-H ) :   0.9506 B(  1-C ,  2-C ) :   1.0237 B(  1-C ,  3-H ) :   0.9679
B(  1-C ,  4-H ) :   0.9605 B(  2-C ,  5-C ) :   0.9975 B(  2-C ,  6-H ) :   0.9552
B(  2-C ,  7-H ) :   0.9465 B(  5-C ,  8-C ) :   1.2383 B(  5-C , 22-C ) :   1.3903
B(  8-C ,  9-N ) :   1.3600 B(  8-C , 19-C ) :   1.2470 B(  9-N , 12-C ) :   0.9480
B( 12-C , 13-C ) :   0.9984 B( 12-C , 14-H ) :   0.9484 B( 12-C , 15-H ) :   0.9518
B( 13-C , 16-C ) :   1.0344 B( 13-C , 17-H ) :   0.9627 B( 13-C , 18-H ) :   0.9666
B( 16-C , 19-C ) :   1.0342 B( 16-C , 20-H ) :   0.9545 B( 16-C , 21-H ) :   0.9476
B( 19-C , 23-C ) :   1.3401 B( 22-C , 24-C ) :   1.0916 B( 22-C , 40-H ) :   1.0509
B( 23-C , 24-C ) :   1.3391 B( 23-C , 25-O ) :   1.0207 B( 24-C , 27-C ) :   1.1769
B( 25-O , 26-C ) :   1.0898 B( 26-C , 28-C ) :   1.1383 B( 26-C , 29-O ) :   1.8791
B( 27-C , 28-C ) :   1.3575 B( 27-C , 41-H ) :   0.9628 B( 28-C , 30-C ) :   0.9930
B( 30-C , 31-C ) :   1.3956 B( 30-C , 32-C ) :   1.3626 B( 31-C , 35-C ) :   1.4689
B( 31-C , 39-H ) :   0.9558 B( 32-C , 33-N ) :   1.5339 B( 32-C , 36-H ) :   0.9672
B( 33-N , 34-C ) :   1.4414 B( 34-C , 35-C ) :   1.4123 B( 34-C , 38-H ) :   0.9677
B( 35-C , 37-H ) :   0.9653

-----------------------------------------------------------------------------
         ABSORPTION SPECTRUM VIA TRANSITION ELECTRIC DIPOLE MOMENTS
-----------------------------------------------------------------------------
State   Energy    Wavelength  fosc         T2        TX        TY        TZ
        (cm-1)      (nm)                 (au**2)    (au)      (au)      (au)
-----------------------------------------------------------------------------
   1   22068.0    453.1   1.399997001  20.88525  -4.31496   1.50418  -0.06136
   2   29911.6    334.3   0.025599317   0.28175   0.44789  -0.28285  -0.03380
   3   30512.5    327.7   0.129036302   1.39223  -0.97819   0.65978   0.00772
   4   32781.3    305.1   0.174266219   1.75010   0.17107  -1.23425  -0.44435
   5   33852.2    295.4   0.030343833   0.29509  -0.46849  -0.25148  -0.11118

FINAL SINGLE POINT ENERGY     -1033.218367586708

DIPOLE MOMENT
-------------
                                X             Y             Z
Electronic contribution:     18.06454      -5.30644       1.46336
Nuclear contribution   :    -24.94425       7.17657      -1.36553
                        -----------------------------------------
Total Dipole Moment    :     -6.87971       1.87013       0.09783
                        -----------------------------------------
Magnitude (a.u.)       :      7.13004
Magnitude (Debye)      :     18.12311

Rotational constants in cm-1:     0.021198     0.003944     0.003362
Rotational constants in MHz :   635.509441   118.236889   100.785741

                             ****ORCA TERMINATED NORMALLY****
TOTAL RUN TIME: 0 days 12 hours 14 minutes 45 seconds 324 msec
