                         Program Version 6.0.1  -  RELEASE   -
|  1> ! cam-b3lyp VERYTIGHTOPT FREQ Def2-TZVP(-f) Def2-TZVP/C Def2/J RIJCOSX TightSCF CPCM(Water) AllPop SOSCF
|  2> %pal nprocs 128 end
|  3> %tddft
|  4>     NRoots 3
|  5>     IRoot 1
|  6> end
|  7>
|  8> * xyz 0 1
|  9>   C          -3.30275837276070     -1.10225919064019     -0.23608248624623
| 10>   C          -2.75697942322917     -2.04374852739824     -1.10719403080731
| 11>   C          -1.42508272944947     -1.91962543669772     -1.47444427652290
| 12>   C          -2.52150503353398     -0.05964379286878      0.28108927359715
| 13>   C          -1.12123240807932      0.04171112284140      0.02686830475695
| 14>   O          -3.22276751799606      0.81107803458248      1.06151039908223
| 15>   C          -0.59793883077458     -0.89844631185998     -0.94116887419510
| 16>   C           0.74408142117640     -0.81671378642399     -1.32526697154036
| 17>   C           1.58569732239444      0.14349987838371     -0.76929361404608
| 18>   C          -0.22614377797250      0.94076444055219      0.69413862067265
| 19>   C           1.14535790512010      1.01239268993266      0.24559284351604
| 20>   N          -0.66888255615188      1.69836027300136      1.73249098040614
| 21>   C           0.18329183973440      2.59557226937155      2.27223382322247
| 22>   C           1.49460964412188      2.78398176784945      1.85607801796243
| 23>   C           2.00307334930733      1.96730191206452      0.84337465097592
| 24>   C          -3.21672298959110      2.17231943728836      0.77004592254346
| 25>   O          -2.85183011349962      2.59019108024525     -0.31215659673643
| 26>   N          -3.76810070787185      2.88547920366514      1.76490979860237
| 27>   C          -4.05328950589666      2.35793096737573      3.09476119500566
| 28>   C          -3.87627926546117      4.33184382140048      1.61501364345263
| 29>   H          -3.09963823873655      4.83812399596787      2.19463174773639
| 30>   H          -4.85116726660033      4.65552623805094      1.98069813601506
| 31>   H          -3.77455222274413      4.60067013336094      0.56901611991011
| 32>   H          -3.26030553114815      2.63486183131575      3.79479041092679
| 33>   H          -4.14343497886490      1.27838941329047      3.06996839283761
| 34>   H          -4.99262097744380      2.78608009885565      3.44530251047586
| 35>   H          -0.98567851407382     -2.61939524384490     -2.17424688549707
| 36>   H          -4.35240871129897     -1.12136057383066      0.02411828284690
| 37>   H          -3.37234542682238     -2.83308520151086     -1.51520127301814
| 38>   H           1.12566236090930     -1.51222554514660     -2.06163206112933
| 39>   H           2.61231992951100      0.21648456506591     -1.10770590629945
| 40>   H          -0.20913667642843      3.17684078519461      3.10040516058897
| 41>   H           2.11280610412088      3.52570926327954      2.34465723658199
| 42>   H           3.03206190735826      2.03922038914426      0.51707749864162
| 43> *
| 44>
| 45>                          ****END OF INPUT****
 Total Charge           Charge          ....    0
 Multiplicity           Mult            ....    1
 Number of Electrons    NEL             ....  140
FINAL SINGLE POINT ENERGY      -877.842712606430
FINAL SINGLE POINT ENERGY      -877.843746343854
FINAL SINGLE POINT ENERGY      -877.843379885229
FINAL SINGLE POINT ENERGY      -877.844037214991
FINAL SINGLE POINT ENERGY      -877.844088142486
FINAL SINGLE POINT ENERGY      -877.844113359226
FINAL SINGLE POINT ENERGY      -877.844127973045
FINAL SINGLE POINT ENERGY      -877.844135513941
FINAL SINGLE POINT ENERGY      -877.844142595033
FINAL SINGLE POINT ENERGY      -877.844142939145
FINAL SINGLE POINT ENERGY      -877.844163357394
FINAL SINGLE POINT ENERGY      -877.844162283328
FINAL SINGLE POINT ENERGY      -877.844162310569
FINAL SINGLE POINT ENERGY      -877.844156468490
FINAL SINGLE POINT ENERGY      -877.844162360942
FINAL SINGLE POINT ENERGY      -877.844162276335
FINAL SINGLE POINT ENERGY      -877.844160295720
FINAL SINGLE POINT ENERGY      -877.844162430854
FINAL SINGLE POINT ENERGY      -877.844162092918
                    ***********************HURRAY********************

CARTESIAN COORDINATES (ANGSTROEM)
---------------------------------
  C     -3.313168   -1.052311   -0.307257
  C     -2.757254   -1.995811   -1.171918
  C     -1.412105   -1.904963   -1.481280
  C     -2.533534   -0.050067    0.256834
  C     -1.136795    0.043088    0.031796
  O     -3.218400    0.798005    1.081507
  C     -0.594555   -0.910882   -0.918228
  C      0.758252   -0.845550   -1.255486
  C      1.599266    0.100191   -0.692713
  C     -0.255166    0.948777    0.691228
  C      1.137823    0.996015    0.281659
  N     -0.705711    1.752144    1.675539
  C      0.129765    2.649566    2.209165
  C      1.453829    2.816941    1.824913
  C      1.972813    1.961354    0.864575
  C     -3.263861    2.134944    0.776154
  O     -2.945026    2.551472   -0.318524
  N     -3.786108    2.855306    1.776250
  C     -3.966758    2.345556    3.124520
  C     -3.875453    4.295478    1.618937
  H     -3.018649    4.792512    2.080684
  H     -4.785449    4.648539    2.101536
  H     -3.906402    4.548021    0.564845
  H     -3.099758    2.579050    3.747055
  H     -4.116062    1.272751    3.113265
  H     -4.845811    2.819306    3.558800
  H     -0.962448   -2.610049   -2.168722
  H     -4.369545   -1.058342   -0.077139
  H     -3.375656   -2.764491   -1.612108
  H      1.149619   -1.551931   -1.976267
  H      2.636114    0.151364   -0.998860
  H     -0.279947    3.257627    3.008637
  H      2.064548    3.568722    2.304317
  H      3.009752    2.015499    0.560665

 Multiplicity           Mult            ....    1
 Number of Electrons    NEL             ....  140
 Basis Dimension        Dim             ....  564

ORBITAL ENERGIES
----------------

  NO   OCC          E(Eh)            E(eV)
   0   2.0000     -19.247451      -523.7498
   1   2.0000     -19.173845      -521.7468
   2   2.0000     -14.423333      -392.4788
   3   2.0000     -14.393560      -391.6687
   4   2.0000     -10.399177      -282.9760
   5   2.0000     -10.323183      -280.9081
   6   2.0000     -10.300741      -280.2974
   7   2.0000     -10.287139      -279.9273
   8   2.0000     -10.274232      -279.5761
   9   2.0000     -10.270953      -279.4868
  10   2.0000     -10.270401      -279.4718
  11   2.0000     -10.269880      -279.4576
  12   2.0000     -10.268491      -279.4199
  13   2.0000     -10.267543      -279.3941
  14   2.0000     -10.257744      -279.1274
  15   2.0000     -10.257690      -279.1259
  16   2.0000     -10.257403      -279.1181
  17   2.0000     -10.256379      -279.0903
  18   2.0000     -10.253825      -279.0208
  19   2.0000     -10.252910      -278.9959
  20   2.0000      -1.205983       -32.8165
  21   2.0000      -1.110097       -30.2073
  22   2.0000      -1.037798       -28.2399
  23   2.0000      -1.032946       -28.1079
  24   2.0000      -0.964699       -26.2508
  25   2.0000      -0.921486       -25.0749
  26   2.0000      -0.891468       -24.2581
  27   2.0000      -0.866816       -23.5873
  28   2.0000      -0.832965       -22.6661
  29   2.0000      -0.823330       -22.4040
  30   2.0000      -0.801291       -21.8042
  31   2.0000      -0.785251       -21.3678
  32   2.0000      -0.737236       -20.0612
  33   2.0000      -0.726710       -19.7748
  34   2.0000      -0.705016       -19.1845
  35   2.0000      -0.697034       -18.9673
  36   2.0000      -0.646995       -17.6056
  37   2.0000      -0.621028       -16.8990
  38   2.0000      -0.610254       -16.6059
  39   2.0000      -0.605297       -16.4710
  40   2.0000      -0.586222       -15.9519
  41   2.0000      -0.573186       -15.5972
  42   2.0000      -0.565357       -15.3841
  43   2.0000      -0.554268       -15.0824
  44   2.0000      -0.551067       -14.9953
  45   2.0000      -0.534914       -14.5557
  46   2.0000      -0.512577       -13.9479
  47   2.0000      -0.511934       -13.9304
  48   2.0000      -0.510015       -13.8782
  49   2.0000      -0.496742       -13.5170
  50   2.0000      -0.493125       -13.4186
  51   2.0000      -0.478820       -13.0293
  52   2.0000      -0.474414       -12.9095
  53   2.0000      -0.472627       -12.8608
  54   2.0000      -0.469737       -12.7822
  55   2.0000      -0.466460       -12.6930
  56   2.0000      -0.451622       -12.2893
  57   2.0000      -0.451095       -12.2749
  58   2.0000      -0.443194       -12.0599
  59   2.0000      -0.428820       -11.6688
  60   2.0000      -0.418103       -11.3772
  61   2.0000      -0.404094       -10.9960
  62   2.0000      -0.386041       -10.5047
  63   2.0000      -0.368550       -10.0288
  64   2.0000      -0.356303        -9.6955
  65   2.0000      -0.337037        -9.1712
  66   2.0000      -0.328789        -8.9468
  67   2.0000      -0.312000        -8.4900
  68   2.0000      -0.295675        -8.0457
  69   2.0000      -0.269285        -7.3276
  70   0.0000      -0.028499        -0.7755
  71   0.0000      -0.016296        -0.4434
  72   0.0000       0.030349         0.8258
  73   0.0000       0.061199         1.6653
  74   0.0000       0.075981         2.0675

----------------------------------------------------------------------------------------------------
                     ABSORPTION SPECTRUM VIA TRANSITION ELECTRIC DIPOLE MOMENTS
----------------------------------------------------------------------------------------------------
     Transition      Energy     Energy  Wavelength fosc(D2)      D2        DX        DY        DZ
                      (eV)      (cm-1)    (nm)                 (au**2)    (au)      (au)      (au)
----------------------------------------------------------------------------------------------------
  0-1A  ->  1-1A    3.902083   31472.4   317.7   0.310336581   3.24622  -1.36185  -1.04062  -0.55561
  0-1A  ->  2-1A    4.262661   34380.7   290.9   0.302403195   2.89566   0.69011   1.28307   0.87928
  0-1A  ->  3-1A    4.652561   37525.4   266.5   0.037937408   0.33283   0.11308   0.53414   0.18638

MULLIKEN ATOMIC CHARGES
-----------------------
   0 C :   -0.170401
   1 C :   -0.142497
   2 C :   -0.147076
   3 C :    0.162660
   4 C :    0.117767
   5 O :   -0.458101
   6 C :    0.153478
   7 C :   -0.175307
   8 C :   -0.244849
   9 C :    0.202739
  10 C :    0.267664
  11 N :   -0.565461
  12 C :    0.061779
  13 C :   -0.113415
  14 C :   -0.238057
  15 C :    0.718974
  16 O :   -0.607100
  17 N :   -0.242746
  18 C :   -0.285329
  19 C :   -0.272123
  20 H :    0.144114
  21 H :    0.150908
  22 H :    0.152725
  23 H :    0.142605
  24 H :    0.160807
  25 H :    0.152309
  26 H :    0.139944
  27 H :    0.137561
  28 H :    0.133987
  29 H :    0.137030
  30 H :    0.129381
  31 H :    0.134818
  32 H :    0.130196
  33 H :    0.131014
Sum of atomic charges:    0.0000000

LOEWDIN ATOMIC CHARGES
----------------------
   0 C :   -0.089223
   1 C :   -0.135109
   2 C :   -0.050849
   3 C :   -0.104127
   4 C :   -0.058980
   5 O :    0.198448
   6 C :   -0.111146
   7 C :   -0.057785
   8 C :   -0.085953
   9 C :   -0.074870
  10 C :   -0.085726
  11 N :    0.032563
  12 C :   -0.164523
  13 C :   -0.161163
  14 C :   -0.110708
  15 C :   -0.358621
  16 O :   -0.084803
  17 N :    0.076366
  18 C :   -0.229710
  19 C :   -0.224308
  20 H :    0.113276
  21 H :    0.117737
  22 H :    0.120454
  23 H :    0.112463
  24 H :    0.119779
  25 H :    0.118215
  26 H :    0.153887
  27 H :    0.151426
  28 H :    0.146078
  29 H :    0.154247
  30 H :    0.149790
  31 H :    0.134413
  32 H :    0.143041
  33 H :    0.145423

  Mayer bond orders larger than 0.100000
B(  0-C ,  1-C ) :   1.2349 B(  0-C ,  3-C ) :   1.4049 B(  0-C , 27-H ) :   0.9921
B(  1-C ,  2-C ) :   1.3265 B(  1-C , 28-H ) :   0.9966 B(  2-C ,  6-C ) :   1.2586
B(  2-C , 26-H ) :   0.9802 B(  3-C ,  4-C ) :   1.1952 B(  3-C ,  5-O ) :   0.9381
B(  4-C ,  6-C ) :   1.1759 B(  4-C ,  9-C ) :   1.1518 B(  5-O , 15-C ) :   0.9800
B(  6-C ,  7-C ) :   1.2882 B(  7-C ,  8-C ) :   1.2847 B(  7-C , 29-H ) :   0.9838
B(  8-C , 10-C ) :   1.2426 B(  8-C , 30-H ) :   0.9993 B(  9-C , 10-C ) :   1.1665
B(  9-C , 11-N ) :   1.3682 B( 10-C , 14-C ) :   1.2928 B( 11-N , 12-C ) :   1.3958
B( 12-C , 13-C ) :   1.3785 B( 12-C , 31-H ) :   0.9730 B( 13-C , 14-C ) :   1.3219
B( 13-C , 32-H ) :   0.9743 B( 14-C , 33-H ) :   0.9730 B( 15-C , 16-O ) :   1.8375
B( 15-C , 17-N ) :   1.3541 B( 17-N , 18-C ) :   0.9402 B( 17-N , 19-C ) :   0.9379
B( 18-C , 23-H ) :   0.9603 B( 18-C , 24-H ) :   0.9644 B( 18-C , 25-H ) :   0.9662
B( 19-C , 20-H ) :   0.9637 B( 19-C , 21-H ) :   0.9646 B( 19-C , 22-H ) :   0.9662

FINAL SINGLE POINT ENERGY      -877.844162262022

DIPOLE MOMENT
-------------

Method             : TDA/CIS
Type of density    : Electron Density
Level              : Relaxed density
State              :   1
Multiplicity       :   1
Irrep              :   0
Energy             :     0.0000000000000000 Eh
Relativity type    :
Basis              : AO
                                X                 Y                 Z
Electronic contribution:      4.054640132      -7.277334155      -5.541524684
Nuclear contribution   :     -3.813108541       6.626117254       6.176192441
                        -----------------------------------------
Total Dipole Moment    :      0.241531591      -0.651216901       0.634667757
                        -----------------------------------------
Magnitude (a.u.)       :      0.940863498
Magnitude (Debye)      :      2.391484958

VIBRATIONAL FREQUENCIES
-----------------------

Scaling factor for frequencies =  1.000000000  (already applied!)

     0:       0.00 cm**-1
     1:       0.00 cm**-1
     2:       0.00 cm**-1
     3:       0.00 cm**-1
     4:       0.00 cm**-1
     5:       0.00 cm**-1
     6:      21.78 cm**-1
     7:      32.06 cm**-1
     8:      55.65 cm**-1
     9:      72.15 cm**-1
    10:      84.44 cm**-1
    11:      94.77 cm**-1
    12:     118.88 cm**-1
    13:     137.09 cm**-1
    14:     178.58 cm**-1
    15:     207.85 cm**-1
    16:     216.66 cm**-1
    17:     228.74 cm**-1
    18:     251.91 cm**-1
    19:     282.62 cm**-1
    20:     357.87 cm**-1
    21:     368.56 cm**-1
    22:     376.02 cm**-1
    23:     406.25 cm**-1
    24:     445.04 cm**-1
    25:     462.78 cm**-1
    26:     478.79 cm**-1
    27:     504.20 cm**-1
    28:     517.61 cm**-1
    29:     529.28 cm**-1
    30:     551.63 cm**-1
    31:     583.77 cm**-1
    32:     611.28 cm**-1
    33:     645.22 cm**-1
    34:     678.43 cm**-1
    35:     687.45 cm**-1
    36:     719.40 cm**-1
    37:     723.76 cm**-1
    38:     749.05 cm**-1
    39:     767.56 cm**-1
    40:     803.47 cm**-1
    41:     827.80 cm**-1
    42:     836.74 cm**-1
    43:     858.21 cm**-1
    44:     862.48 cm**-1
    45:     897.31 cm**-1
    46:     918.03 cm**-1
    47:     944.62 cm**-1
    48:     957.80 cm**-1
    49:     969.10 cm**-1
    50:    1004.01 cm**-1
    51:    1012.45 cm**-1
    52:    1037.63 cm**-1
    53:    1083.96 cm**-1
    54:    1092.08 cm**-1
    55:    1102.24 cm**-1
    56:    1106.64 cm**-1
    57:    1133.88 cm**-1
    58:    1137.46 cm**-1
    59:    1167.98 cm**-1
    60:    1178.58 cm**-1
    61:    1189.73 cm**-1
    62:    1217.70 cm**-1
    63:    1233.72 cm**-1
    64:    1271.05 cm**-1
    65:    1273.72 cm**-1
    66:    1298.94 cm**-1
    67:    1309.73 cm**-1
    68:    1354.04 cm**-1
    69:    1406.06 cm**-1
    70:    1413.74 cm**-1
    71:    1434.59 cm**-1
    72:    1444.43 cm**-1
    73:    1451.55 cm**-1
    74:    1463.81 cm**-1
    75:    1470.44 cm**-1
    76:    1478.52 cm**-1
    77:    1482.70 cm**-1
    78:    1485.78 cm**-1
    79:    1490.70 cm**-1
    80:    1500.10 cm**-1
    81:    1530.70 cm**-1
    82:    1537.33 cm**-1
    83:    1545.40 cm**-1
    84:    1575.63 cm**-1
    85:    1595.98 cm**-1
    86:    1603.29 cm**-1
    87:    1748.15 cm**-1
    88:    3044.22 cm**-1
    89:    3050.38 cm**-1
    90:    3120.67 cm**-1
    91:    3124.26 cm**-1
    92:    3178.23 cm**-1
    93:    3187.35 cm**-1
    94:    3198.38 cm**-1
    95:    3199.67 cm**-1
    96:    3200.57 cm**-1
    97:    3205.18 cm**-1
    98:    3215.55 cm**-1
    99:    3218.86 cm**-1
   100:    3227.12 cm**-1
   101:    3232.01 cm**-1

IR SPECTRUM
-----------

 Mode   freq       eps      Int      T**2         TX        TY        TZ
       cm**-1   L/(mol*cm) km/mol    a.u.
----------------------------------------------------------------------------
  6:     21.78   0.001438    7.27  0.020598  ( 0.127201 -0.027460  0.060532)
  7:     32.06   0.000284    1.44  0.002766  ( 0.005846 -0.052170  0.003188)
  8:     55.65   0.000291    1.47  0.001631  (-0.007833 -0.039397  0.004193)
  9:     72.15   0.001117    5.65  0.004833  (-0.057911 -0.021265 -0.032046)
 10:     84.44   0.001257    6.35  0.004644  (-0.026519  0.043948 -0.044831)
 11:     94.77   0.000781    3.95  0.002573  ( 0.007211  0.037607 -0.033261)
 12:    118.88   0.000096    0.48  0.000251  (-0.008059 -0.003923  0.013070)
 13:    137.09   0.000684    3.46  0.001557  (-0.037018  0.012261 -0.006038)
 14:    178.58   0.000277    1.40  0.000484  (-0.012615  0.003104  0.017749)
 15:    207.85   0.000901    4.55  0.001352  (-0.002750  0.022239 -0.029155)
 16:    216.66   0.000733    3.70  0.001056  ( 0.028112 -0.012644 -0.010281)
 17:    228.74   0.001678    8.48  0.002289  (-0.032285  0.002532  0.035219)
 18:    251.91   0.000596    3.01  0.000738  (-0.024211  0.011904 -0.003223)
 19:    282.62   0.000170    0.86  0.000188  (-0.005599 -0.007589  0.009929)
 20:    357.87   0.000262    1.33  0.000229  (-0.010814  0.008893  0.005727)
 21:    368.56   0.003825   19.33  0.003239  ( 0.023920 -0.049998 -0.012924)
 22:    376.02   0.000206    1.04  0.000171  (-0.002284  0.012727 -0.001854)
 23:    406.25   0.001870    9.45  0.001436  ( 0.015402 -0.022953 -0.025925)
 24:    445.04   0.000278    1.41  0.000195  ( 0.010355  0.001039 -0.009315)
 25:    462.78   0.001109    5.61  0.000748  (-0.002189  0.005245 -0.026751)
 26:    478.79   0.000334    1.69  0.000218  ( 0.004184 -0.013383  0.004576)
 27:    504.20   0.000169    0.85  0.000105  (-0.000079 -0.010046 -0.001911)
 28:    517.61   0.001321    6.68  0.000796  ( 0.005908  0.027557 -0.001442)
 29:    529.28   0.000397    2.01  0.000234  (-0.010772 -0.002530 -0.010575)
 30:    551.63   0.001343    6.79  0.000760  (-0.014374 -0.019370 -0.013350)
 31:    583.77   0.000845    4.27  0.000452  (-0.019667  0.007118 -0.003749)
 32:    611.28   0.003720   18.80  0.001899  ( 0.037707  0.017920 -0.012490)
 33:    645.22   0.005185   26.20  0.002508  (-0.020329 -0.010437 -0.044559)
 34:    678.43   0.003140   15.87  0.001444  (-0.007357  0.013310 -0.034830)
 35:    687.45   0.012418   62.76  0.005637  (-0.013775  0.059447 -0.043741)
 36:    719.40   0.005520   27.90  0.002395  ( 0.004739 -0.038694  0.029578)
 37:    723.76   0.002428   12.27  0.001047  (-0.018698 -0.025342 -0.007413)
 38:    749.05   0.009995   50.51  0.004164  (-0.059565 -0.012533 -0.021429)
 39:    767.56   0.002982   15.07  0.001212  ( 0.018387 -0.004677  0.029196)
 40:    803.47   0.009566   48.34  0.003715  (-0.025739  0.021164 -0.051039)
 41:    827.80   0.005229   26.43  0.001971  ( 0.016660  0.025885 -0.031997)
 42:    836.74   0.008391   42.41  0.003129  (-0.016979  0.035854 -0.039442)
 43:    858.21   0.003266   16.50  0.001188  ( 0.011467  0.026213  0.019207)
 44:    862.48   0.005262   26.59  0.001904  (-0.005702  0.043219 -0.001822)
 45:    897.31   0.002160   10.91  0.000751  (-0.007545  0.016582 -0.020476)
 46:    918.03   0.000872    4.41  0.000296  (-0.007011 -0.015721 -0.000304)
 47:    944.62   0.000600    3.03  0.000198  (-0.003335  0.011954 -0.006645)
 48:    957.80   0.000316    1.60  0.000103  ( 0.001016 -0.002057  0.009886)
 49:    969.10   0.001316    6.65  0.000424  (-0.006917  0.004886 -0.018763)
 50:   1004.01   0.003534   17.86  0.001099  ( 0.005551  0.005231 -0.032255)
 51:   1012.45   0.001880    9.50  0.000579  ( 0.014628 -0.018606  0.004386)
 52:   1037.63   0.008676   43.85  0.002609  (-0.002043 -0.051041  0.000047)
 53:   1083.96   0.009897   50.01  0.002849  ( 0.046809 -0.024950  0.005974)
 54:   1092.08   0.004183   21.14  0.001195  ( 0.001125  0.032700 -0.011162)
 55:   1102.24   0.004046   20.45  0.001145  ( 0.025748  0.013912  0.016997)
 56:   1106.64   0.002856   14.43  0.000805  (-0.027389 -0.006248 -0.004023)
 57:   1133.88   0.002784   14.07  0.000766  ( 0.006475 -0.026854  0.001767)
 58:   1137.46   0.002745   13.87  0.000753  (-0.015548 -0.021470 -0.007098)
 59:   1167.98   0.149837  757.22  0.040034  (-0.087719  0.158086  0.085722)
 60:   1178.58   0.009576   48.39  0.002536  (-0.019797  0.042131  0.019198)
 61:   1189.73   0.038380  193.96  0.010067  (-0.032152  0.091328  0.026317)
 62:   1217.70   0.020444  103.32  0.005239  (-0.042511  0.055748  0.018009)
 63:   1233.72   0.010205   51.57  0.002581  ( 0.018346  0.045205  0.014182)
 64:   1271.05   0.018588   93.94  0.004564  ( 0.037588 -0.054131 -0.014856)
 65:   1273.72   0.015666   79.17  0.003838  (-0.023700  0.053269  0.020947)
 66:   1298.94   0.000497    2.51  0.000119  ( 0.008713  0.000683  0.006550)
 67:   1309.73   0.003136   15.85  0.000747  (-0.003286 -0.023465  0.013631)
 68:   1354.04   0.015383   77.74  0.003545  ( 0.034112 -0.041276 -0.026038)
 69:   1406.06   0.018852   95.27  0.004184  (-0.027177 -0.048098 -0.033645)
 70:   1413.74   0.015373   77.69  0.003393  ( 0.020428 -0.050582 -0.020436)
 71:   1434.59   0.028273  142.88  0.006150  ( 0.033046 -0.064142 -0.030724)
 72:   1444.43   0.004818   24.35  0.001041  ( 0.019419 -0.021728 -0.013849)
 73:   1451.55   0.002058   10.40  0.000443  ( 0.005842 -0.002918 -0.019997)
 74:   1463.81   0.002692   13.61  0.000574  ( 0.015579 -0.018188 -0.000655)
 75:   1470.44   0.006502   32.86  0.001380  (-0.017672  0.026001 -0.019786)
 76:   1478.52   0.004828   24.40  0.001019  (-0.018422  0.009052  0.024447)
 77:   1482.70   0.000310    1.57  0.000065  (-0.001280 -0.006772 -0.004225)
 78:   1485.78   0.001934    9.77  0.000406  (-0.006591 -0.017021 -0.008549)
 79:   1490.70   0.009442   47.72  0.001977  (-0.041527 -0.012191  0.010169)
 80:   1500.10   0.002749   13.89  0.000572  (-0.001765 -0.018048  0.015588)
 81:   1530.70   0.010873   54.95  0.002217  ( 0.002061  0.047032 -0.000582)
 82:   1537.33   0.018064   91.29  0.003667  (-0.032575  0.045105  0.023902)
 83:   1545.40   0.005804   29.33  0.001172  ( 0.021750 -0.023785 -0.011542)
 84:   1575.63   0.004268   21.57  0.000845  ( 0.015272 -0.011929 -0.021675)
 85:   1595.98   0.005992   30.28  0.001172  (-0.033095 -0.002398  0.008408)
 86:   1603.29   0.003010   15.21  0.000586  (-0.012907  0.012049  0.016558)
 87:   1748.15   0.206910  1045.64  0.036936  (-0.059899  0.007786  0.182448)
 88:   3044.22   0.008765   44.30  0.000899  ( 0.003585  0.029747  0.000915)
 89:   3050.38   0.014296   72.25  0.001463  (-0.006254 -0.011658 -0.035882)
 90:   3120.67   0.007897   39.91  0.000790  ( 0.027855 -0.003594 -0.000934)
 91:   3124.26   0.003628   18.34  0.000362  ( 0.018709 -0.002122 -0.002805)
 92:   3178.23   0.004569   23.09  0.000449  (-0.004026  0.013951  0.015421)
 93:   3187.35   0.000819    4.14  0.000080  (-0.000337  0.002074 -0.008703)
 94:   3198.38   0.000041    0.21  0.000004  ( 0.000026  0.001304  0.001504)
 95:   3199.67   0.001029    5.20  0.000100  ( 0.000288  0.009983  0.000813)
 96:   3200.57   0.000735    3.71  0.000072  ( 0.002569 -0.005758 -0.005646)
 97:   3205.18   0.000649    3.28  0.000063  (-0.006758  0.001542  0.003892)
 98:   3215.55   0.002499   12.63  0.000243  (-0.011808  0.005508  0.008531)
 99:   3218.86   0.001615    8.16  0.000157  (-0.003522  0.009215  0.007698)
100:   3227.12   0.001396    7.05  0.000135  (-0.006736 -0.008143 -0.004823)
101:   3232.01   0.001119    5.65  0.000108  ( 0.005560  0.007669  0.004277)

--------------------------
THERMOCHEMISTRY AT 298.15K
--------------------------

Temperature         ...   298.15 K
Pressure            ...     1.00 atm
Total Mass          ...   266.30 AMU
Quasi RRHO          ...     True
Cut-Off Frequency   ...     1.00 cm^-1

Throughout the following assumptions are being made:
  (1) The electronic state is orbitally nondegenerate
  (2) There are no thermally accessible electronically excited states
  (3) Hindered rotations indicated by low frequency modes are not
      treated as such but are treated as vibrations and this may
      cause some error
  (4) All equations used are the standard statistical mechanics
      equations for an ideal gas
  (5) All vibrations are strictly harmonic

freq.      21.78  E(vib)   ...       0.56
freq.      32.06  E(vib)   ...       0.55
freq.      55.65  E(vib)   ...       0.52
freq.      72.15  E(vib)   ...       0.50
freq.      84.44  E(vib)   ...       0.48
freq.      94.77  E(vib)   ...       0.47
freq.     118.88  E(vib)   ...       0.44
freq.     137.09  E(vib)   ...       0.42
freq.     178.58  E(vib)   ...       0.37
freq.     207.85  E(vib)   ...       0.34
freq.     216.66  E(vib)   ...       0.34
freq.     228.74  E(vib)   ...       0.32
freq.     251.91  E(vib)   ...       0.30
freq.     282.62  E(vib)   ...       0.28
freq.     357.87  E(vib)   ...       0.22
freq.     368.56  E(vib)   ...       0.21
freq.     376.02  E(vib)   ...       0.21
freq.     406.25  E(vib)   ...       0.19
freq.     445.04  E(vib)   ...       0.17
freq.     462.78  E(vib)   ...       0.16
freq.     478.79  E(vib)   ...       0.15
freq.     504.20  E(vib)   ...       0.14
freq.     517.61  E(vib)   ...       0.13
freq.     529.28  E(vib)   ...       0.13
freq.     551.63  E(vib)   ...       0.12
freq.     583.77  E(vib)   ...       0.11
freq.     611.28  E(vib)   ...       0.10
freq.     645.22  E(vib)   ...       0.09
freq.     678.43  E(vib)   ...       0.08
freq.     687.45  E(vib)   ...       0.07
freq.     719.40  E(vib)   ...       0.07
freq.     723.76  E(vib)   ...       0.06
freq.     749.05  E(vib)   ...       0.06
freq.     767.56  E(vib)   ...       0.06
freq.     803.47  E(vib)   ...       0.05
freq.     827.80  E(vib)   ...       0.04
freq.     836.74  E(vib)   ...       0.04
freq.     858.21  E(vib)   ...       0.04
freq.     862.48  E(vib)   ...       0.04
freq.     897.31  E(vib)   ...       0.03
freq.     918.03  E(vib)   ...       0.03
freq.     944.62  E(vib)   ...       0.03
freq.     957.80  E(vib)   ...       0.03
freq.     969.10  E(vib)   ...       0.03
freq.    1004.01  E(vib)   ...       0.02
freq.    1012.45  E(vib)   ...       0.02
freq.    1037.63  E(vib)   ...       0.02
freq.    1083.96  E(vib)   ...       0.02
freq.    1092.08  E(vib)   ...       0.02
freq.    1102.24  E(vib)   ...       0.02
freq.    1106.64  E(vib)   ...       0.02
freq.    1133.88  E(vib)   ...       0.01
freq.    1137.46  E(vib)   ...       0.01
freq.    1167.98  E(vib)   ...       0.01
freq.    1178.58  E(vib)   ...       0.01
freq.    1189.73  E(vib)   ...       0.01
freq.    1217.70  E(vib)   ...       0.01
freq.    1233.72  E(vib)   ...       0.01
freq.    1271.05  E(vib)   ...       0.01
freq.    1273.72  E(vib)   ...       0.01
freq.    1298.94  E(vib)   ...       0.01
freq.    1309.73  E(vib)   ...       0.01
freq.    1354.04  E(vib)   ...       0.01
freq.    1406.06  E(vib)   ...       0.00
freq.    1413.74  E(vib)   ...       0.00
freq.    1434.59  E(vib)   ...       0.00
freq.    1444.43  E(vib)   ...       0.00
freq.    1451.55  E(vib)   ...       0.00
freq.    1463.81  E(vib)   ...       0.00
freq.    1470.44  E(vib)   ...       0.00
freq.    1478.52  E(vib)   ...       0.00
freq.    1482.70  E(vib)   ...       0.00
freq.    1485.78  E(vib)   ...       0.00
freq.    1490.70  E(vib)   ...       0.00
freq.    1500.10  E(vib)   ...       0.00
freq.    1530.70  E(vib)   ...       0.00
freq.    1537.33  E(vib)   ...       0.00
freq.    1545.40  E(vib)   ...       0.00
freq.    1575.63  E(vib)   ...       0.00
freq.    1595.98  E(vib)   ...       0.00
freq.    1603.29  E(vib)   ...       0.00
freq.    1748.15  E(vib)   ...       0.00
freq.    3044.22  E(vib)   ...       0.00
freq.    3050.38  E(vib)   ...       0.00
freq.    3120.67  E(vib)   ...       0.00
freq.    3124.26  E(vib)   ...       0.00
freq.    3178.23  E(vib)   ...       0.00
freq.    3187.35  E(vib)   ...       0.00
freq.    3198.38  E(vib)   ...       0.00
freq.    3199.67  E(vib)   ...       0.00
freq.    3200.57  E(vib)   ...       0.00
freq.    3205.18  E(vib)   ...       0.00
freq.    3215.55  E(vib)   ...       0.00
freq.    3218.86  E(vib)   ...       0.00
freq.    3227.12  E(vib)   ...       0.00
freq.    3232.01  E(vib)   ...       0.00

------------
INNER ENERGY
------------

The inner energy is: U= E(el) + E(ZPE) + E(vib) + E(rot) + E(trans)
    E(el)   - is the total energy from the electronic structure calculation
              = E(kin-el) + E(nuc-el) + E(el-el) + E(nuc-nuc)
    E(ZPE)  - the the zero temperature vibrational energy from the frequency calculation
    E(vib)  - the the finite temperature correction to E(ZPE) due to population
              of excited vibrational states
    E(rot)  - is the rotational thermal energy
    E(trans)- is the translational thermal energy

Summary of contributions to the inner energy U:
Electronic energy                ...   -877.84416226 Eh
Zero point energy                ...      0.26720526 Eh     167.67 kcal/mol
Thermal vibrational correction   ...      0.01444576 Eh       9.06 kcal/mol
Thermal rotational correction    ...      0.00141627 Eh       0.89 kcal/mol
Thermal translational correction ...      0.00141627 Eh       0.89 kcal/mol
-----------------------------------------------------------------------
Total thermal energy                   -877.55967870 Eh

Summary of corrections to the electronic energy:
(perhaps to be used in another calculation)
Total thermal correction                  0.01727830 Eh      10.84 kcal/mol
Non-thermal (ZPE) correction              0.26720526 Eh     167.67 kcal/mol
-----------------------------------------------------------------------
Total correction                          0.28448356 Eh     178.52 kcal/mol

--------
ENTHALPY
--------

The enthalpy is H = U + kB*T
                kB is Boltzmann's constant
Total thermal energy              ...   -877.55967870 Eh
Thermal Enthalpy correction       ...      0.00094421 Eh       0.59 kcal/mol
-----------------------------------------------------------------------
Total Enthalpy                    ...   -877.55873449 Eh

Note: Only C1 symmetry has been detected, increase convergence thresholds
      if your molecule has a higher symmetry. Symmetry factor of 1.0 is

Rotational constants in cm-1:     0.016096     0.011777     0.007496

                             ****ORCA TERMINATED NORMALLY****
TOTAL RUN TIME: 2 days 10 hours 28 minutes 46 seconds 867 msec
