                         Program Version 5.0.1 -  RELEASE  -
|  1> ## avogadro generated ORCA input file
|  2> # Advanced Mode
|  3> #
|  4> ! B3LYP/G OPT Freq Def2-TZVP(-f) Def2-TZVP/C Def2/J RIJCOSX TightSCF CPCM(Water) AllPop SOSCF
|  5> %maxcore 3000
|  6>
|  7> %scf
|  8> 	MaxIter 125
|  9> 	CNVDIIS 1
| 10> 	CNVSOSCF 1
| 11> end
| 12>
| 13> %tddft
| 14>     NRoots 1
| 15>     IRoot 1
| 16> end
| 17>
| 18> * xyz 1 1
| 19>    C       -2.99216       -0.91079        0.23086
| 20>    C       -2.54105       -1.92218       -0.61894
| 21>    C       -1.28231       -1.86837       -1.13606
| 22>    C       -2.17644        0.12908        0.54827
| 23>    C       -0.84971        0.20197        0.07068
| 24>    O       -2.64910        1.09729        1.40037
| 25>    C       -0.42106       -0.81312       -0.80360
| 26>    C        0.89740       -0.77746       -1.37730
| 27>    C        1.75025        0.20797       -1.09545
| 28>    C        0.11318        1.22877        0.40802
| 29>    C        1.37653        1.24280       -0.17600
| 30>    N       -0.15809        2.19518        1.31258
| 31>    C        0.67624        3.15637        1.64971
| 32>    C        1.92506        3.23314        1.07573
| 33>    C        2.26843        2.26633        0.16853
| 34>    C       -3.66331        1.90295        0.99817
| 35>    O       -3.95528        2.00247       -0.15693
| 36>    N       -4.22503        2.54017        2.01667
| 37>    C       -5.20649        3.57992        1.76061
| 38>    C       -3.85193        2.34683        3.40965
| 39>    H       -3.47834        1.35148        3.57626
| 40>    H       -4.73578        2.48926        4.01537
| 41>    H       -3.10255        3.06839        3.71594
| 42>    H       -5.34877        3.70235        0.70160
| 43>    H       -4.86307        4.51613        2.18478
| 44>    H       -6.15082        3.31600        2.22057
| 45>    H       -0.93056       -2.63339       -1.80097
| 46>    H       -3.98748       -0.93832        0.62991
| 47>    H       -3.19706       -2.73498       -0.86489
| 48>    H        1.17290       -1.56661       -2.05005
| 49>    H        2.73021        0.24311       -1.53075
| 50>    H        0.32498        3.85086        2.38573
| 51>    H        2.59513        4.02079        1.35095
| 52>    H        3.23860        2.27858       -0.29126
| 53>    H       -1.04145        2.16781        1.77305
| 54>
| 55>
| 56> *
| 57>
| 58>
| 59>                          ****END OF INPUT****
 Total Charge           Charge          ....    1
 Multiplicity           Mult            ....    1
 Number of Electrons    NEL             ....  140
FINAL SINGLE POINT ENERGY      -878.762353677789
FINAL SINGLE POINT ENERGY      -878.777563952654
FINAL SINGLE POINT ENERGY      -878.780447050054
FINAL SINGLE POINT ENERGY      -878.780965499951
FINAL SINGLE POINT ENERGY      -878.781208931550
FINAL SINGLE POINT ENERGY      -878.781357650020
FINAL SINGLE POINT ENERGY      -878.781463741734
FINAL SINGLE POINT ENERGY      -878.781511799274
FINAL SINGLE POINT ENERGY      -878.781535721327
FINAL SINGLE POINT ENERGY      -878.781545059917
FINAL SINGLE POINT ENERGY      -878.781549180598
FINAL SINGLE POINT ENERGY      -878.781554709168
FINAL SINGLE POINT ENERGY      -878.781561925221
FINAL SINGLE POINT ENERGY      -878.781567671162
FINAL SINGLE POINT ENERGY      -878.781573841435
FINAL SINGLE POINT ENERGY      -878.781577874763
                    ***********************HURRAY********************

CARTESIAN COORDINATES (ANGSTROEM)
---------------------------------
  C     -3.075743   -0.637511   -0.039281
  C     -2.664864   -1.723916   -0.800713
  C     -1.340308   -1.810266   -1.169233
  C     -2.168897    0.371703    0.345899
  C     -0.790138    0.319057    0.000899
  O     -2.602594    1.380365    1.138239
  C     -0.391268   -0.810955   -0.780177
  C      0.941254   -0.952466   -1.185877
  C      1.883381   -0.008896   -0.825937
  C      0.204373    1.285475    0.356506
  C      1.541484    1.128155   -0.052075
  N     -0.095025    2.414705    1.107972
  C      0.853169    3.348736    1.453257
  C      2.155069    3.201484    1.063837
  C      2.529803    2.088197    0.300414
  C     -3.894949    1.944426    0.943419
  O     -4.407217    1.933433   -0.154825
  N     -4.355671    2.480459    2.072180
  C     -5.598993    3.248907    2.033113
  C     -3.690235    2.420282    3.373752
  H     -2.889112    1.691060    3.367130
  H     -4.426450    2.131671    4.124322
  H     -3.290053    3.402268    3.633306
  H     -5.994067    3.257711    1.023368
  H     -5.403274    4.271646    2.359807
  H     -6.326485    2.795612    2.707849
  H     -0.982321   -2.645240   -1.756737
  H     -4.100505   -0.564037    0.292501
  H     -3.373480   -2.489175   -1.082744
  H      1.226723   -1.808436   -1.782260
  H      2.913294   -0.129801   -1.137020
  H      0.491820    4.181567    2.036180
  H      2.876699    3.953278    1.349644
  H      3.547715    1.946183   -0.030553
  H     -1.042059    2.555101    1.415648

 Multiplicity           Mult            ....    1
 Number of Electrons    NEL             ....  140
 Basis Dimension        Dim             ....  570

ORBITAL ENERGIES
----------------

  NO   OCC          E(Eh)            E(eV)
   0   2.0000     -19.199999      -522.4585
   1   2.0000     -19.120284      -520.2894
   2   2.0000     -14.427953      -392.6046
   3   2.0000     -14.372620      -391.0989
   4   2.0000     -10.340456      -281.3781
   5   2.0000     -10.278303      -279.6868
   6   2.0000     -10.272448      -279.5275
   7   2.0000     -10.267890      -279.4035
   8   2.0000     -10.236476      -278.5487
   9   2.0000     -10.230006      -278.3726
  10   2.0000     -10.225929      -278.2617
  11   2.0000     -10.217069      -278.0206
  12   2.0000     -10.216003      -277.9916
  13   2.0000     -10.207115      -277.7497
  14   2.0000     -10.204895      -277.6893
  15   2.0000     -10.201448      -277.5955
  16   2.0000     -10.200743      -277.5763
  17   2.0000     -10.196405      -277.4583
  18   2.0000     -10.195268      -277.4274
  19   2.0000     -10.192581      -277.3542
  20   2.0000      -1.136184       -30.9171
  21   2.0000      -1.050878       -28.5958
  22   2.0000      -1.023974       -27.8638
  23   2.0000      -0.966732       -26.3061
  24   2.0000      -0.905548       -24.6412
  25   2.0000      -0.867632       -23.6095
  26   2.0000      -0.842384       -22.9224
  27   2.0000      -0.809197       -22.0194
  28   2.0000      -0.782566       -21.2947
  29   2.0000      -0.760014       -20.6810
  30   2.0000      -0.732749       -19.9391
  31   2.0000      -0.726839       -19.7783
  32   2.0000      -0.700574       -19.0636
  33   2.0000      -0.682224       -18.5642
  34   2.0000      -0.666172       -18.1275
  35   2.0000      -0.651648       -17.7322
  36   2.0000      -0.606457       -16.5025
  37   2.0000      -0.593195       -16.1417
  38   2.0000      -0.557441       -15.1687
  39   2.0000      -0.553711       -15.0672
  40   2.0000      -0.548880       -14.9358
  41   2.0000      -0.540271       -14.7015
  42   2.0000      -0.510921       -13.9029
  43   2.0000      -0.508885       -13.8475
  44   2.0000      -0.504198       -13.7199
  45   2.0000      -0.494126       -13.4459
  46   2.0000      -0.487187       -13.2570
  47   2.0000      -0.473623       -12.8879
  48   2.0000      -0.469903       -12.7867
  49   2.0000      -0.459050       -12.4914
  50   2.0000      -0.454039       -12.3550
  51   2.0000      -0.445684       -12.1277
  52   2.0000      -0.432319       -11.7640
  53   2.0000      -0.427123       -11.6226
  54   2.0000      -0.417055       -11.3486
  55   2.0000      -0.416617       -11.3367
  56   2.0000      -0.409897       -11.1539
  57   2.0000      -0.405713       -11.0400
  58   2.0000      -0.398090       -10.8326
  59   2.0000      -0.392294       -10.6749
  60   2.0000      -0.384652       -10.4669
  61   2.0000      -0.379695       -10.3320
  62   2.0000      -0.363890        -9.9020
  63   2.0000      -0.349061        -9.4984
  64   2.0000      -0.337737        -9.1903
  65   2.0000      -0.308879        -8.4050
  66   2.0000      -0.300681        -8.1819
  67   2.0000      -0.275359        -7.4929
  68   2.0000      -0.267811        -7.2875
  69   2.0000      -0.237003        -6.4492
  70   0.0000      -0.112056        -3.0492
  71   0.0000      -0.077379        -2.1056
  72   0.0000      -0.041700        -1.1347
  73   0.0000      -0.011465        -0.3120
  74   0.0000       0.017909         0.4873

MULLIKEN ATOMIC CHARGES
-----------------------
   0 C :   -0.124128
   1 C :   -0.088551
   2 C :   -0.191111
   3 C :    0.207413
   4 C :    0.272503
   5 O :   -0.536087
   6 C :    0.223355
   7 C :   -0.196436
   8 C :   -0.263224
   9 C :   -0.064237
  10 C :    0.412958
  11 N :   -0.182532
  12 C :    0.104640
  13 C :   -0.033092
  14 C :   -0.148000
  15 C :    0.664863
  16 O :   -0.586078
  17 N :   -0.202715
  18 C :   -0.250397
  19 C :   -0.269648
  20 H :    0.160417
  21 H :    0.150973
  22 H :    0.146511
  23 H :    0.151688
  24 H :    0.143893
  25 H :    0.146845
  26 H :    0.121454
  27 H :    0.122586
  28 H :    0.123533
  29 H :    0.122440
  30 H :    0.120060
  31 H :    0.184221
  32 H :    0.150881
  33 H :    0.156994
  34 H :    0.248008
Sum of atomic charges:    1.0000000

LOEWDIN ATOMIC CHARGES
----------------------
   0 C :   -0.085167
   1 C :   -0.107003
   2 C :   -0.079533
   3 C :   -0.119032
   4 C :   -0.030165
   5 O :    0.164269
   6 C :   -0.071705
   7 C :   -0.063566
   8 C :   -0.069850
   9 C :   -0.013012
  10 C :   -0.077746
  11 N :    0.218455
  12 C :   -0.032770
  13 C :   -0.098435
  14 C :    0.015603
  15 C :   -0.331715
  16 O :   -0.060557
  17 N :    0.093605
  18 C :   -0.203842
  19 C :   -0.210011
  20 H :    0.120695
  21 H :    0.119603
  22 H :    0.116482
  23 H :    0.121273
  24 H :    0.117693
  25 H :    0.117622
  26 H :    0.148089
  27 H :    0.151048
  28 H :    0.148906
  29 H :    0.154285
  30 H :    0.152958
  31 H :    0.161646
  32 H :    0.160586
  33 H :    0.161656
  34 H :    0.209635

  Mayer bond orders larger than 0.100000
B(  0-C ,  1-C ) :   1.2940 B(  0-C ,  3-C ) :   1.4092 B(  0-C , 27-H ) :   0.9798
B(  1-C ,  2-C ) :   1.4036 B(  1-C , 28-H ) :   0.9902 B(  2-C ,  6-C ) :   1.2588
B(  2-C , 26-H ) :   0.9917 B(  3-C ,  4-C ) :   1.1900 B(  3-C ,  5-O ) :   0.9001
B(  4-C ,  6-C ) :   1.2973 B(  4-C ,  9-C ) :   1.0015 B(  5-O , 15-C ) :   0.9235
B(  6-C ,  7-C ) :   1.1775 B(  7-C ,  8-C ) :   1.4568 B(  7-C , 29-H ) :   1.0071
B(  8-C , 10-C ) :   1.1428 B(  8-C , 30-H ) :   1.0144 B(  9-C , 10-C ) :   1.3128
B(  9-C , 11-N ) :   1.2703 B( 10-C , 14-C ) :   1.2943 B( 11-N , 12-C ) :   1.3146
B( 11-N , 34-H ) :   0.8656 B( 12-C , 13-C ) :   1.4278 B( 12-C , 31-H ) :   0.9369
B( 13-C , 14-C ) :   1.3976 B( 13-C , 32-H ) :   0.9583 B( 14-C , 33-H ) :   0.9530
B( 15-C , 16-O ) :   1.8652 B( 15-C , 17-N ) :   1.3836 B( 17-N , 18-C ) :   0.9287
B( 17-N , 19-C ) :   0.9334 B( 18-C , 23-H ) :   0.9616 B( 18-C , 24-H ) :   0.9581
B( 18-C , 25-H ) :   0.9614 B( 19-C , 20-H ) :   0.9585 B( 19-C , 21-H ) :   0.9559
B( 19-C , 22-H ) :   0.9616

-----------------------------------------------------------------------------
         ABSORPTION SPECTRUM VIA TRANSITION ELECTRIC DIPOLE MOMENTS
-----------------------------------------------------------------------------
State   Energy    Wavelength  fosc         T2        TX        TY        TZ
        (cm-1)      (nm)                 (au**2)    (au)      (au)      (au)
-----------------------------------------------------------------------------
   1   23354.9    428.2   0.252488438   3.55908  -1.66307  -0.87690  -0.15597

FINAL SINGLE POINT ENERGY      -878.781579305799

DIPOLE MOMENT
-------------
                                X             Y             Z
Electronic contribution:      6.48067      -5.89269      -7.12757
Nuclear contribution   :     -6.04171       5.10634       8.28733
                        -----------------------------------------
Total Dipole Moment    :      0.43896      -0.78635       1.15976
                        -----------------------------------------
Magnitude (a.u.)       :      1.46836
Magnitude (Debye)      :      3.73227

VIBRATIONAL FREQUENCIES
-----------------------

Scaling factor for frequencies =  1.000000000 (already applied!)

   0:         0.00 cm**-1
   1:         0.00 cm**-1
   2:         0.00 cm**-1
   3:         0.00 cm**-1
   4:         0.00 cm**-1
   5:         0.00 cm**-1
   6:        28.09 cm**-1
   7:        39.61 cm**-1
   8:        50.72 cm**-1
   9:        65.21 cm**-1
  10:        81.20 cm**-1
  11:        96.80 cm**-1
  12:       102.54 cm**-1
  13:       133.18 cm**-1
  14:       155.47 cm**-1
  15:       201.93 cm**-1
  16:       223.13 cm**-1
  17:       241.04 cm**-1
  18:       255.86 cm**-1
  19:       263.72 cm**-1
  20:       333.79 cm**-1
  21:       338.46 cm**-1
  22:       385.29 cm**-1
  23:       408.68 cm**-1
  24:       457.03 cm**-1
  25:       464.14 cm**-1
  26:       478.23 cm**-1
  27:       493.27 cm**-1
  28:       499.39 cm**-1
  29:       504.90 cm**-1
  30:       542.73 cm**-1
  31:       557.76 cm**-1
  32:       596.41 cm**-1
  33:       605.32 cm**-1
  34:       632.39 cm**-1
  35:       667.01 cm**-1
  36:       689.48 cm**-1
  37:       697.68 cm**-1
  38:       717.85 cm**-1
  39:       736.96 cm**-1
  40:       756.86 cm**-1
  41:       789.21 cm**-1
  42:       799.22 cm**-1
  43:       819.44 cm**-1
  44:       842.43 cm**-1
  45:       852.33 cm**-1
  46:       865.86 cm**-1
  47:       927.05 cm**-1
  48:       942.76 cm**-1
  49:       944.09 cm**-1
  50:       971.22 cm**-1
  51:       979.09 cm**-1
  52:      1009.61 cm**-1
  53:      1031.69 cm**-1
  54:      1071.05 cm**-1
  55:      1074.35 cm**-1
  56:      1094.83 cm**-1
  57:      1110.79 cm**-1
  58:      1124.23 cm**-1
  59:      1130.60 cm**-1
  60:      1157.41 cm**-1
  61:      1172.85 cm**-1
  62:      1190.85 cm**-1
  63:      1201.87 cm**-1
  64:      1217.69 cm**-1
  65:      1228.14 cm**-1
  66:      1252.53 cm**-1
  67:      1268.29 cm**-1
  68:      1282.90 cm**-1
  69:      1347.08 cm**-1
  70:      1358.03 cm**-1
  71:      1378.10 cm**-1
  72:      1391.07 cm**-1
  73:      1413.18 cm**-1
  74:      1441.69 cm**-1
  75:      1443.83 cm**-1
  76:      1457.05 cm**-1
  77:      1464.84 cm**-1
  78:      1476.25 cm**-1
  79:      1481.27 cm**-1
  80:      1485.71 cm**-1
  81:      1488.92 cm**-1
  82:      1508.01 cm**-1
  83:      1516.76 cm**-1
  84:      1523.58 cm**-1
  85:      1567.22 cm**-1
  86:      1574.46 cm**-1
  87:      1605.84 cm**-1
  88:      1622.65 cm**-1
  89:      1757.68 cm**-1
  90:      3042.89 cm**-1
  91:      3046.87 cm**-1
  92:      3098.11 cm**-1
  93:      3101.94 cm**-1
  94:      3176.07 cm**-1
  95:      3184.65 cm**-1
  96:      3194.92 cm**-1
  97:      3205.82 cm**-1
  98:      3209.29 cm**-1
  99:      3210.01 cm**-1
 100:      3220.31 cm**-1
 101:      3220.99 cm**-1
 102:      3233.03 cm**-1
 103:      3240.35 cm**-1
 104:      3632.64 cm**-1

IR SPECTRUM
-----------

 Mode   freq       eps      Int      T**2         TX        TY        TZ
       cm**-1   L/(mol*cm) km/mol    a.u.
----------------------------------------------------------------------------
  6:     28.09   0.000097    0.49  0.001082  ( 0.003277  0.032433 -0.004342)
  7:     39.61   0.000994    5.02  0.007829  ( 0.048962  0.069576 -0.024301)
  8:     50.72   0.000271    1.37  0.001669  ( 0.022065  0.004001  0.034152)
  9:     65.21   0.000130    0.66  0.000621  (-0.020824 -0.010103 -0.009244)
 10:     81.20   0.000558    2.82  0.002146  (-0.019123  0.007301 -0.041552)
 11:     96.80   0.000216    1.09  0.000696  ( 0.008936  0.015130 -0.019679)
 12:    102.54   0.000744    3.76  0.002263  (-0.012269  0.038109 -0.025703)
 13:    133.18   0.000802    4.05  0.001878  (-0.026777 -0.030818  0.014538)
 14:    155.47   0.000178    0.90  0.000357  (-0.011384  0.004934 -0.014246)
 15:    201.93   0.000597    3.01  0.000922  ( 0.010586  0.003379 -0.028257)
 16:    223.13   0.001161    5.87  0.001624  ( 0.026587 -0.028662  0.009800)
 17:    241.04   0.002874   14.53  0.003721  ( 0.042823  0.042717 -0.007921)
 18:    255.86   0.000279    1.41  0.000341  (-0.004548  0.016388  0.007179)
 19:    263.72   0.002651   13.40  0.003136  (-0.048137  0.017773 -0.022437)
 20:    333.79   0.001165    5.89  0.001089  (-0.031239  0.009288  0.005211)
 21:    338.46   0.001085    5.48  0.001001  (-0.029481  0.008833  0.007313)
 22:    385.29   0.003177   16.06  0.002573  (-0.036242  0.023407  0.026682)
 23:    408.68   0.001235    6.24  0.000943  ( 0.012453  0.020160  0.019526)
 24:    457.03   0.001267    6.40  0.000865  ( 0.000654 -0.013776  0.025976)
 25:    464.14   0.002346   11.86  0.001577  ( 0.028309 -0.020432  0.018933)
 26:    478.23   0.006996   35.35  0.004565  ( 0.033039 -0.040875  0.042459)
 27:    493.27   0.004379   22.13  0.002770  (-0.028460 -0.000882  0.044269)
 28:    499.39   0.008864   44.80  0.005539  (-0.014515  0.037613 -0.062560)
 29:    504.90   0.001197    6.05  0.000740  ( 0.012437  0.023594 -0.005335)
 30:    542.73   0.001343    6.79  0.000772  (-0.027643  0.001912 -0.002098)
 31:    557.76   0.010335   52.23  0.005782  ( 0.013384 -0.041075  0.062577)
 32:    596.41   0.000582    2.94  0.000304  (-0.010771 -0.012123 -0.006430)
 33:    605.32   0.002018   10.20  0.001040  (-0.026760  0.016377 -0.007488)
 34:    632.39   0.006904   34.89  0.003407  ( 0.019820 -0.015380 -0.052700)
 35:    667.01   0.013258   67.00  0.006203  ( 0.025828 -0.048470  0.056450)
 36:    689.48   0.005401   27.29  0.002444  ( 0.040469 -0.022831 -0.016894)
 37:    697.68   0.000829    4.19  0.000371  ( 0.013719 -0.004911 -0.012592)
 38:    717.85   0.000939    4.74  0.000408  ( 0.012639  0.010414  0.011826)
 39:    736.96   0.004816   24.34  0.002039  ( 0.010858  0.042751 -0.009679)
 40:    756.86   0.006761   34.17  0.002788  ( 0.020162  0.011025 -0.047534)
 41:    789.21   0.006493   32.81  0.002567  ( 0.042893 -0.025768  0.007978)
 42:    799.22   0.028989  146.50  0.011319  ( 0.087670 -0.015401 -0.058272)
 43:    819.44   0.003238   16.36  0.001233  (-0.031711  0.012872  0.007866)
 44:    842.43   0.007137   36.07  0.002644  (-0.039566  0.028518 -0.016278)
 45:    852.33   0.013160   66.51  0.004818  (-0.024010  0.035674 -0.054491)
 46:    865.86   0.000357    1.80  0.000129  ( 0.002082  0.011141 -0.000433)
 47:    927.05   0.001665    8.41  0.000560  ( 0.009990 -0.018548  0.010795)
 48:    942.76   0.056946  287.78  0.018850  (-0.120292  0.064096  0.016479)
 49:    944.09   0.001200    6.06  0.000397  (-0.009541 -0.002764  0.017259)
 50:    971.22   0.000648    3.27  0.000208  ( 0.006935 -0.008761  0.009127)
 51:    979.09   0.000051    0.26  0.000016  (-0.001590 -0.003513 -0.001235)
 52:   1009.61   0.007777   39.30  0.002404  (-0.028942  0.034860  0.018732)
 53:   1031.69   0.046159  233.27  0.013962  ( 0.089189 -0.067249 -0.038536)
 54:   1071.05   0.008752   44.23  0.002550  (-0.046211  0.019372  0.006277)
 55:   1074.35   0.004023   20.33  0.001169  (-0.026983  0.020394 -0.004968)
 56:   1094.83   0.067336  340.29  0.019193  (-0.076225  0.092669  0.069248)
 57:   1110.79   0.100290  506.82  0.028175  ( 0.125389 -0.079600 -0.078208)
 58:   1124.23   0.000554    2.80  0.000154  (-0.011440  0.004594 -0.001345)
 59:   1130.60   0.004768   24.10  0.001316  ( 0.030888  0.018662  0.003716)
 60:   1157.41   0.001885    9.53  0.000508  (-0.011259 -0.014838 -0.012704)
 61:   1172.85   0.000692    3.50  0.000184  (-0.006188  0.011341 -0.004159)
 62:   1190.85   0.000866    4.37  0.000227  ( 0.012753  0.000189 -0.008011)
 63:   1201.87   0.013267   67.04  0.003445  (-0.052915  0.023811  0.008818)
 64:   1217.69   0.007499   37.90  0.001922  (-0.027194 -0.034158 -0.003928)
 65:   1228.14   0.021214  107.21  0.005390  (-0.050641  0.047282  0.024298)
 66:   1252.53   0.014869   75.14  0.003705  ( 0.053158 -0.028876 -0.006711)
 67:   1268.29   0.000109    0.55  0.000027  ( 0.003170 -0.000936  0.003978)
 68:   1282.90   0.015743   79.56  0.003830  (-0.021967  0.050339  0.028512)
 69:   1347.08   0.011784   59.55  0.002730  ( 0.051276 -0.004577 -0.008922)
 70:   1358.03   0.041684  210.65  0.009579  ( 0.055613  0.073461  0.033004)
 71:   1378.10   0.001604    8.11  0.000363  ( 0.002177 -0.017512 -0.007202)
 72:   1391.07   0.038985  197.01  0.008746  (-0.091988  0.006768  0.015427)
 73:   1413.18   0.029355  148.35  0.006482  (-0.072743  0.025886  0.022817)
 74:   1441.69   0.002947   14.89  0.000638  (-0.001201 -0.001748 -0.025166)
 75:   1443.83   0.004173   21.09  0.000902  (-0.026721  0.009312  0.010058)
 76:   1457.05   0.014020   70.85  0.003003  ( 0.044529 -0.029480 -0.012278)
 77:   1464.84   0.009387   47.44  0.002000  (-0.013070 -0.011370 -0.041228)
 78:   1476.25   0.000208    1.05  0.000044  (-0.006055  0.002655  0.000596)
 79:   1481.27   0.000729    3.68  0.000154  ( 0.003348 -0.008413  0.008460)
 80:   1485.71   0.008658   43.75  0.001819  (-0.028776 -0.029923  0.009752)
 81:   1488.92   0.001302    6.58  0.000273  ( 0.009986 -0.006922  0.011189)
 82:   1508.01   0.013935   70.42  0.002884  (-0.036044  0.030749  0.025281)
 83:   1516.76   0.022115  111.76  0.004550  ( 0.060202  0.023849  0.018890)
 84:   1523.58   0.007272   36.75  0.001490  ( 0.009710 -0.036636 -0.007282)
 85:   1567.22   0.015121   76.41  0.003011  ( 0.035203  0.038202  0.017669)
 86:   1574.46   0.008316   42.02  0.001648  (-0.031619 -0.024044 -0.008384)
 87:   1605.84   0.005446   27.52  0.001058  ( 0.002642 -0.030028 -0.012238)
 88:   1622.65   0.020716  104.69  0.003984  ( 0.000280  0.053791  0.033022)
 89:   1757.68   0.210843  1065.51  0.037434  (-0.006290 -0.041914 -0.188779)
 90:   3042.89   0.005022   25.38  0.000515  (-0.020446  0.007254 -0.006660)
 91:   3046.87   0.014281   72.17  0.001463  ( 0.009621 -0.021164 -0.030368)
 92:   3098.11   0.007620   38.51  0.000768  (-0.016424 -0.020797  0.008082)
 93:   3101.94   0.001671    8.45  0.000168  ( 0.008454  0.007510 -0.006345)
 94:   3176.07   0.000495    2.50  0.000049  ( 0.003782 -0.001685  0.005615)
 95:   3184.65   0.000970    4.90  0.000095  ( 0.006912 -0.006863  0.000461)
 96:   3194.92   0.000117    0.59  0.000011  (-0.000833 -0.002795 -0.001697)
 97:   3205.82   0.000041    0.21  0.000004  ( 0.000604 -0.001587 -0.001066)
 98:   3209.29   0.000729    3.68  0.000071  (-0.006271  0.004098  0.003844)
 99:   3210.01   0.000059    0.30  0.000006  (-0.001726  0.001204  0.001153)
100:   3220.31   0.001852    9.36  0.000179  (-0.002391 -0.011294 -0.006798)
101:   3220.99   0.000537    2.71  0.000052  (-0.007067 -0.000805  0.001188)
102:   3233.03   0.000541    2.73  0.000052  ( 0.005474 -0.002147 -0.004201)
103:   3240.35   0.002695   13.62  0.000260  (-0.002326 -0.013970 -0.007679)
104:   3632.64   0.086496  437.11  0.007430  (-0.081462  0.012596  0.025215)

--------------------------
THERMOCHEMISTRY AT 298.15K
--------------------------

Temperature         ... 298.15 K
Pressure            ... 1.00 atm
Total Mass          ... 267.31 AMU

Throughout the following assumptions are being made:
  (1) The electronic state is orbitally nondegenerate
  (2) There are no thermally accessible electronically excited states
  (3) Hindered rotations indicated by low frequency modes are not
      treated as such but are treated as vibrations and this may
      cause some error
  (4) All equations used are the standard statistical mechanics
      equations for an ideal gas
  (5) All vibrations are strictly harmonic

freq.      28.09  E(vib)   ...       0.55
freq.      39.61  E(vib)   ...       0.54
freq.      50.72  E(vib)   ...       0.52
freq.      65.21  E(vib)   ...       0.50
freq.      81.20  E(vib)   ...       0.48
freq.      96.80  E(vib)   ...       0.46
freq.     102.54  E(vib)   ...       0.46
freq.     133.18  E(vib)   ...       0.42
freq.     155.47  E(vib)   ...       0.40
freq.     201.93  E(vib)   ...       0.35
freq.     223.13  E(vib)   ...       0.33
freq.     241.04  E(vib)   ...       0.31
freq.     255.86  E(vib)   ...       0.30
freq.     263.72  E(vib)   ...       0.29
freq.     333.79  E(vib)   ...       0.24
freq.     338.46  E(vib)   ...       0.23
freq.     385.29  E(vib)   ...       0.20
freq.     408.68  E(vib)   ...       0.19
freq.     457.03  E(vib)   ...       0.16
freq.     464.14  E(vib)   ...       0.16
freq.     478.23  E(vib)   ...       0.15
freq.     493.27  E(vib)   ...       0.14
freq.     499.39  E(vib)   ...       0.14
freq.     504.90  E(vib)   ...       0.14
freq.     542.73  E(vib)   ...       0.12
freq.     557.76  E(vib)   ...       0.12
freq.     596.41  E(vib)   ...       0.10
freq.     605.32  E(vib)   ...       0.10
freq.     632.39  E(vib)   ...       0.09
freq.     667.01  E(vib)   ...       0.08
freq.     689.48  E(vib)   ...       0.07
freq.     697.68  E(vib)   ...       0.07
freq.     717.85  E(vib)   ...       0.07
freq.     736.96  E(vib)   ...       0.06
freq.     756.86  E(vib)   ...       0.06
freq.     789.21  E(vib)   ...       0.05
freq.     799.22  E(vib)   ...       0.05
freq.     819.44  E(vib)   ...       0.05
freq.     842.43  E(vib)   ...       0.04
freq.     852.33  E(vib)   ...       0.04
freq.     865.86  E(vib)   ...       0.04
freq.     927.05  E(vib)   ...       0.03
freq.     942.76  E(vib)   ...       0.03
freq.     944.09  E(vib)   ...       0.03
freq.     971.22  E(vib)   ...       0.03
freq.     979.09  E(vib)   ...       0.03
freq.    1009.61  E(vib)   ...       0.02
freq.    1031.69  E(vib)   ...       0.02
freq.    1071.05  E(vib)   ...       0.02
freq.    1074.35  E(vib)   ...       0.02
freq.    1094.83  E(vib)   ...       0.02
freq.    1110.79  E(vib)   ...       0.01
freq.    1124.23  E(vib)   ...       0.01
freq.    1130.60  E(vib)   ...       0.01
freq.    1157.41  E(vib)   ...       0.01
freq.    1172.85  E(vib)   ...       0.01
freq.    1190.85  E(vib)   ...       0.01
freq.    1201.87  E(vib)   ...       0.01
freq.    1217.69  E(vib)   ...       0.01
freq.    1228.14  E(vib)   ...       0.01
freq.    1252.53  E(vib)   ...       0.01
freq.    1268.29  E(vib)   ...       0.01
freq.    1282.90  E(vib)   ...       0.01
freq.    1347.08  E(vib)   ...       0.01
freq.    1358.03  E(vib)   ...       0.01
freq.    1378.10  E(vib)   ...       0.01
freq.    1391.07  E(vib)   ...       0.00
freq.    1413.18  E(vib)   ...       0.00
freq.    1441.69  E(vib)   ...       0.00
freq.    1443.83  E(vib)   ...       0.00
freq.    1457.05  E(vib)   ...       0.00
freq.    1464.84  E(vib)   ...       0.00
freq.    1476.25  E(vib)   ...       0.00
freq.    1481.27  E(vib)   ...       0.00
freq.    1485.71  E(vib)   ...       0.00
freq.    1488.92  E(vib)   ...       0.00
freq.    1508.01  E(vib)   ...       0.00
freq.    1516.76  E(vib)   ...       0.00
freq.    1523.58  E(vib)   ...       0.00
freq.    1567.22  E(vib)   ...       0.00
freq.    1574.46  E(vib)   ...       0.00
freq.    1605.84  E(vib)   ...       0.00
freq.    1622.65  E(vib)   ...       0.00
freq.    1757.68  E(vib)   ...       0.00
freq.    3042.89  E(vib)   ...       0.00
freq.    3046.87  E(vib)   ...       0.00
freq.    3098.11  E(vib)   ...       0.00
freq.    3101.94  E(vib)   ...       0.00
freq.    3176.07  E(vib)   ...       0.00
freq.    3184.65  E(vib)   ...       0.00
freq.    3194.92  E(vib)   ...       0.00
freq.    3205.82  E(vib)   ...       0.00
freq.    3209.29  E(vib)   ...       0.00
freq.    3210.01  E(vib)   ...       0.00
freq.    3220.31  E(vib)   ...       0.00
freq.    3220.99  E(vib)   ...       0.00
freq.    3233.03  E(vib)   ...       0.00
freq.    3240.35  E(vib)   ...       0.00
freq.    3632.64  E(vib)   ...       0.00

------------
INNER ENERGY
------------

The inner energy is: U= E(el) + E(ZPE) + E(vib) + E(rot) + E(trans)
    E(el)   - is the total energy from the electronic structure calculation
              = E(kin-el) + E(nuc-el) + E(el-el) + E(nuc-nuc)
    E(ZPE)  - the the zero temperature vibrational energy from the frequency calculation
    E(vib)  - the the finite temperature correction to E(ZPE) due to population
              of excited vibrational states
    E(rot)  - is the rotational thermal energy
    E(trans)- is the translational thermal energy

Summary of contributions to the inner energy U:
Electronic energy                ...   -878.78157917 Eh
Zero point energy                ...      0.27833655 Eh     174.66 kcal/mol
Thermal vibrational correction   ...      0.01487244 Eh       9.33 kcal/mol
Thermal rotational correction    ...      0.00141627 Eh       0.89 kcal/mol
Thermal translational correction ...      0.00141627 Eh       0.89 kcal/mol
-----------------------------------------------------------------------
Total thermal energy                   -878.48553764 Eh

Summary of corrections to the electronic energy:
(perhaps to be used in another calculation)
Total thermal correction                  0.01770498 Eh      11.11 kcal/mol
Non-thermal (ZPE) correction              0.27833655 Eh     174.66 kcal/mol
-----------------------------------------------------------------------
Total correction                          0.29604153 Eh     185.77 kcal/mol

--------
ENTHALPY
--------

The enthalpy is H = U + kB*T
                kB is Boltzmann's constant
Total free energy                 ...   -878.48553764 Eh
Thermal Enthalpy correction       ...      0.00094421 Eh       0.59 kcal/mol
-----------------------------------------------------------------------
Total Enthalpy                    ...   -878.48459343 Eh

Note: Only C1 symmetry has been detected, increase convergence thresholds

Rotational constants in cm-1:     0.017112     0.009201     0.006320

                             ****ORCA TERMINATED NORMALLY****
TOTAL RUN TIME: 7 days 2 hours 28 minutes 18 seconds 134 msec
