                         Program Version 6.0.1  -  RELEASE   -
|  1> ! B3LYP/G OPT FREQ 6-311G* CPCM(Water)
|  2>
|  3> * xyz 0 1
|  4> C  -3.42835598041479716613 -0.98189617742141321877 -0.40937175247591128802
|  5> C  -2.88943429417101160794 -1.87182895790464942642 -1.33565676067144312178
|  6> C  -1.55843868163791676729 -1.79930513591762131220 -1.65746476942635534435
|  7> C  -2.62481963052731170905 -0.05279036204188614079 0.21582180148637758466
|  8> C  -1.24065043558521614919 0.00801932574592068015 -0.04645775642142402351
|  9> O  -3.23984703057650635927 0.79508962521827730718 1.12369343283635059194
| 10> C  -0.71891660613185559559 -0.86407565246148254623 -1.03285982615081839420
| 11> C  0.65713771937492770903 -0.77855415302509545228 -1.39539803338011236811
| 12> C  1.48307568763422681357 0.12461001396713600187 -0.82156700276752259171
| 13> C  -0.34022483984848883587 0.90699085327483319752 0.62865414670548136478
| 14> C  1.01049760024486490195 0.98415244193825213159 0.20817496915706135141
| 15> N  -0.79044824008192304809 1.64001263266328778379 1.65776378131940083094
| 16> C  0.01768364492327312298 2.48799289943862333985 2.24648748252856522711
| 17> C  1.34869660694332749173 2.68076651846005020730 1.87121129746362480084
| 18> C  1.84858393250286257015 1.90803515466895667885 0.85189132824924984622
| 19> C  -3.10031036290498374086 2.13362282592975294193 0.91800182416147513287
| 20> O  -2.73390241653861654214 2.60698251268953606896 -0.15071247683684274588
| 21> N  -3.52277306756698393997 2.86916196433364234508 1.94830268580414389668
| 22> C  -3.90840575155498193283 2.32171680997805918167 3.23009517756779729325
| 23> C  -3.43498228856124043773 4.31153620333593856628 1.83320883027556091882
| 24> H  -4.12139920235599355181 4.67203398305714756589 1.06540051384265588297
| 25> H  -2.42437196979890856596 4.60556752077576714299 1.54409781366376086531
| 26> H  -3.68898743811600571263 4.75345514238131272577 2.79059976556211442045
| 27> H  -3.98379007913252447537 1.24188112400999650653 3.15514742711219575710
| 28> H  -4.87445746464801210607 2.73443540232574378024 3.51962943788200721684
| 29> H  -3.16273453564188145037 2.57578280422981986675 3.98499961736920393918
| 30> H  -1.13613209999494579883 -2.45904518398553939562 -2.39933625699696495559
| 31> H  -4.48076683826513377795 -0.99685765507921231254 -0.17307797428030058384
| 32> H  -3.53207313142267764761 -2.59532207843492290777 -1.81125676374193900209
| 33> H  1.01832610758350705638 -1.45089801275446084183 -2.15845113882072148215
| 34> H  2.51873600518737505993 0.20527252462340550565 -1.11603578833145888893
| 35> H  -0.41588131527234795115 3.04202641235919335472 3.06824842669455311039
| 36> H  1.95908711322932349574 3.40621345411626830213 2.38380862360505396680
| 37> H  2.87842928370989215026 1.99305522810478308315 0.53678791133427639082
| 38> *
| 39>
| 40>                          ****END OF INPUT****
 Total Charge           Charge          ....    0
 Multiplicity           Mult            ....    1
 Number of Electrons    NEL             ....  140
FINAL SINGLE POINT ENERGY      -878.320489532043
FINAL SINGLE POINT ENERGY      -878.325224425923
FINAL SINGLE POINT ENERGY      -878.326259777984
FINAL SINGLE POINT ENERGY      -878.326939165769
FINAL SINGLE POINT ENERGY      -878.327496251324
FINAL SINGLE POINT ENERGY      -878.327602239139
FINAL SINGLE POINT ENERGY      -878.328116462905
FINAL SINGLE POINT ENERGY      -878.328359433365
FINAL SINGLE POINT ENERGY      -878.328477509194
FINAL SINGLE POINT ENERGY      -878.328623856297
FINAL SINGLE POINT ENERGY      -878.329403922724
FINAL SINGLE POINT ENERGY      -878.329405875203
FINAL SINGLE POINT ENERGY      -878.329407643829
FINAL SINGLE POINT ENERGY      -878.329408929053
FINAL SINGLE POINT ENERGY      -878.329406685244
FINAL SINGLE POINT ENERGY      -878.329409139351
FINAL SINGLE POINT ENERGY      -878.329409361364
FINAL SINGLE POINT ENERGY      -878.329408110069
FINAL SINGLE POINT ENERGY      -878.329409371347
                    ***********************HURRAY********************

CARTESIAN COORDINATES (ANGSTROEM)
---------------------------------
  C     -3.401248   -0.765456   -0.436066
  C     -2.934536   -1.674425   -1.395497
  C     -1.590469   -1.713464   -1.694308
  C     -2.530436    0.089735    0.209751
  C     -1.135638    0.087738   -0.064979
  O     -3.092937    0.880499    1.204975
  C     -0.679840   -0.852036   -1.043627
  C      0.716056   -0.933975   -1.368460
  C      1.632591   -0.140279   -0.761867
  C     -0.148492    0.949551    0.577442
  C      1.226047    0.815764    0.222752
  N     -0.545825    1.860793    1.498356
  C      0.362400    2.629647    2.078757
  C      1.737404    2.565631    1.800444
  C      2.164119    1.651797    0.862972
  C     -3.337089    2.202799    0.912081
  O     -3.195727    2.658135   -0.209370
  N     -3.795185    2.874782    1.991073
  C     -3.846972    2.329739    3.343729
  C     -4.105909    4.293244    1.864247
  H     -4.111060    4.572392    0.814898
  H     -3.363396    4.900301    2.392996
  H     -5.089286    4.494746    2.296606
  H     -3.678238    1.258928    3.330290
  H     -4.829576    2.530044    3.778907
  H     -3.087208    2.803046    3.974518
  H     -1.209616   -2.412799   -2.431213
  H     -4.453334   -0.719308   -0.178566
  H     -3.632235   -2.338319   -1.894044
  H      1.022814   -1.658098   -2.116287
  H      2.686455   -0.213930   -1.011375
  H     -0.011417    3.344143    2.808380
  H      2.430902    3.223549    2.311473
  H      3.215030    1.562926    0.605395

 Multiplicity           Mult            ....    1
 Number of Electrons    NEL             ....  140
 Basis Dimension        Dim             ....  402

ORBITAL ENERGIES
----------------

  NO   OCC          E(Eh)            E(eV)
   0   2.0000     -19.164657      -521.4968
   1   2.0000     -19.089464      -519.4507
   2   2.0000     -14.344896      -390.3445
   3   2.0000     -14.313790      -389.4980
   4   2.0000     -10.319659      -280.8122
   5   2.0000     -10.247588      -278.8510
   6   2.0000     -10.226770      -278.2845
   7   2.0000     -10.212404      -277.8937
   8   2.0000     -10.201864      -277.6068
   9   2.0000     -10.198614      -277.5184
  10   2.0000     -10.197269      -277.4818
  11   2.0000     -10.194521      -277.4070
  12   2.0000     -10.193887      -277.3898
  13   2.0000     -10.193475      -277.3785
  14   2.0000     -10.183968      -277.1198
  15   2.0000     -10.183782      -277.1148
  16   2.0000     -10.183745      -277.1138
  17   2.0000     -10.183082      -277.0957
  18   2.0000     -10.181443      -277.0511
  19   2.0000     -10.180632      -277.0291
  20   2.0000      -1.114388       -30.3241
  21   2.0000      -1.021862       -27.8063
  22   2.0000      -0.955694       -26.0058
  23   2.0000      -0.944820       -25.7099
  24   2.0000      -0.881189       -23.9784
  25   2.0000      -0.839435       -22.8422
  26   2.0000      -0.808228       -21.9930
  27   2.0000      -0.783675       -21.3249
  28   2.0000      -0.752452       -20.4753
  29   2.0000      -0.744936       -20.2707
  30   2.0000      -0.721487       -19.6327
  31   2.0000      -0.705972       -19.2105
  32   2.0000      -0.656225       -17.8568
  33   2.0000      -0.649157       -17.6645
  34   2.0000      -0.631824       -17.1928
  35   2.0000      -0.619529       -16.8582
  36   2.0000      -0.574703       -15.6385
  37   2.0000      -0.548080       -14.9140
  38   2.0000      -0.536594       -14.6015
  39   2.0000      -0.531210       -14.4550
  40   2.0000      -0.515920       -14.0389
  41   2.0000      -0.496003       -13.4969
  42   2.0000      -0.491809       -13.3828
  43   2.0000      -0.483788       -13.1645
  44   2.0000      -0.479541       -13.0490
  45   2.0000      -0.466687       -12.6992
  46   2.0000      -0.446382       -12.1467
  47   2.0000      -0.443481       -12.0677
  48   2.0000      -0.435555       -11.8520
  49   2.0000      -0.430492       -11.7143
  50   2.0000      -0.420094       -11.4313
  51   2.0000      -0.413536       -11.2529
  52   2.0000      -0.408454       -11.1146
  53   2.0000      -0.407253       -11.0819
  54   2.0000      -0.405334       -11.0297
  55   2.0000      -0.400777       -10.9057
  56   2.0000      -0.386653       -10.5214
  57   2.0000      -0.385289       -10.4843
  58   2.0000      -0.376835       -10.2542
  59   2.0000      -0.363938        -9.9033
  60   2.0000      -0.356828        -9.7098
  61   2.0000      -0.336967        -9.1693
  62   2.0000      -0.317331        -8.6350
  63   2.0000      -0.306549        -8.3416
  64   2.0000      -0.287863        -7.8331
  65   2.0000      -0.281169        -7.6510
  66   2.0000      -0.262408        -7.1405
  67   2.0000      -0.249560        -6.7909
  68   2.0000      -0.248762        -6.7691
  69   2.0000      -0.229519        -6.2455
  70   0.0000      -0.062001        -1.6871
  71   0.0000      -0.053792        -1.4637
  72   0.0000      -0.014863        -0.4044
  73   0.0000       0.012214         0.3324
  74   0.0000       0.039067         1.0631

MULLIKEN ATOMIC CHARGES
-----------------------
   0 C :   -0.214357
   1 C :   -0.220369
   2 C :   -0.221206
   3 C :    0.203300
   4 C :    0.036658
   5 O :   -0.387490
   6 C :    0.001187
   7 C :   -0.226017
   8 C :   -0.230831
   9 C :    0.123494
  10 C :   -0.013571
  11 N :   -0.378112
  12 C :   -0.045922
  13 C :   -0.297640
  14 C :   -0.100649
  15 C :    0.565878
  16 O :   -0.457151
  17 N :   -0.340822
  18 C :   -0.520645
  19 C :   -0.523781
  20 H :    0.234885
  21 H :    0.231811
  22 H :    0.234501
  23 H :    0.244857
  24 H :    0.233429
  25 H :    0.231486
  26 H :    0.228146
  27 H :    0.228462
  28 H :    0.228066
  29 H :    0.230105
  30 H :    0.228737
  31 H :    0.225819
  32 H :    0.230546
  33 H :    0.237196
Sum of atomic charges:   -0.0000000

LOEWDIN ATOMIC CHARGES
----------------------
   0 C :   -0.114506
   1 C :   -0.102135
   2 C :   -0.101638
   3 C :   -0.008559
   4 C :   -0.036888
   5 O :    0.047943
   6 C :   -0.029141
   7 C :   -0.093041
   8 C :   -0.098096
   9 C :   -0.031997
  10 C :   -0.048828
  11 N :   -0.017027
  12 C :   -0.099600
  13 C :   -0.128608
  14 C :   -0.060805
  15 C :   -0.111915
  16 O :   -0.192707
  17 N :    0.031069
  18 C :   -0.242436
  19 C :   -0.240028
  20 H :    0.117148
  21 H :    0.111490
  22 H :    0.114622
  23 H :    0.118416
  24 H :    0.114238
  25 H :    0.110941
  26 H :    0.124082
  27 H :    0.124842
  28 H :    0.124520
  29 H :    0.125756
  30 H :    0.125487
  31 H :    0.110824
  32 H :    0.127763
  33 H :    0.128815

  Mayer bond orders larger than 0.100000
B(  0-C ,  1-C ) :   1.3449 B(  0-C ,  3-C ) :   1.4985 B(  0-C , 27-H ) :   0.9211
B(  1-C ,  2-C ) :   1.5083 B(  1-C , 28-H ) :   0.9270 B(  2-C ,  6-C ) :   1.3189
B(  2-C , 26-H ) :   0.9231 B(  3-C ,  4-C ) :   1.2586 B(  3-C ,  5-O ) :   0.9094
B(  4-C ,  6-C ) :   1.3388 B(  4-C ,  9-C ) :   1.1902 B(  5-O , 15-C ) :   1.0176
B(  6-C ,  7-C ) :   1.1991 B(  7-C ,  8-C ) :   1.6578 B(  7-C , 29-H ) :   0.9205
B(  8-C , 10-C ) :   1.1872 B(  8-C , 30-H ) :   0.9238 B(  9-C , 10-C ) :   1.2391
B(  9-C , 11-N ) :   1.4566 B( 10-C , 14-C ) :   1.3096 B( 11-N , 12-C ) :   1.5633
B( 12-C , 13-C ) :   1.3207 B( 12-C , 31-H ) :   0.9266 B( 13-C , 14-C ) :   1.4955
B( 13-C , 32-H ) :   0.9221 B( 14-C , 33-H ) :   0.9253 B( 15-C , 16-O ) :   1.8924
B( 15-C , 17-N ) :   1.2092 B( 17-N , 18-C ) :   0.9517 B( 17-N , 19-C ) :   0.9629
B( 18-C , 23-H ) :   0.9151 B( 18-C , 24-H ) :   0.9197 B( 18-C , 25-H ) :   0.9157
B( 19-C , 20-H ) :   0.9160 B( 19-C , 21-H ) :   0.9184 B( 19-C , 22-H ) :   0.9209

FINAL SINGLE POINT ENERGY      -878.329409402186

DIPOLE MOMENT
-------------

Method             : SCF
Type of density    : Electron Density
Multiplicity       :   1
Irrep              :   0
Energy             :  -878.3294094021861156 Eh
Relativity type    :
Basis              : AO
                                X                 Y                 Z
Electronic contribution:      5.073310492      -6.354466485      -5.793233165
Nuclear contribution   :     -4.116340024       6.103810181       6.834833284
                        -----------------------------------------
Total Dipole Moment    :      0.956970468      -0.250656303       1.041600119
                        -----------------------------------------
Magnitude (a.u.)       :      1.436506828
Magnitude (Debye)      :      3.651310183

VIBRATIONAL FREQUENCIES
-----------------------

Scaling factor for frequencies =  1.000000000  (already applied!)

     0:       0.00 cm**-1
     1:       0.00 cm**-1
     2:       0.00 cm**-1
     3:       0.00 cm**-1
     4:       0.00 cm**-1
     5:       0.00 cm**-1
     6:      23.10 cm**-1
     7:      37.84 cm**-1
     8:      50.34 cm**-1
     9:      58.30 cm**-1
    10:      96.93 cm**-1
    11:     103.38 cm**-1
    12:     113.17 cm**-1
    13:     131.98 cm**-1
    14:     204.33 cm**-1
    15:     220.39 cm**-1
    16:     227.73 cm**-1
    17:     232.63 cm**-1
    18:     246.40 cm**-1
    19:     297.05 cm**-1
    20:     366.99 cm**-1
    21:     376.63 cm**-1
    22:     409.66 cm**-1
    23:     421.02 cm**-1
    24:     463.54 cm**-1
    25:     488.81 cm**-1
    26:     509.46 cm**-1
    27:     519.35 cm**-1
    28:     524.65 cm**-1
    29:     561.25 cm**-1
    30:     582.09 cm**-1
    31:     607.40 cm**-1
    32:     623.15 cm**-1
    33:     659.12 cm**-1
    34:     701.60 cm**-1
    35:     729.80 cm**-1
    36:     735.99 cm**-1
    37:     739.22 cm**-1
    38:     773.21 cm**-1
    39:     800.75 cm**-1
    40:     823.74 cm**-1
    41:     833.28 cm**-1
    42:     853.72 cm**-1
    43:     868.06 cm**-1
    44:     870.66 cm**-1
    45:     921.94 cm**-1
    46:     965.33 cm**-1
    47:     979.44 cm**-1
    48:     987.90 cm**-1
    49:     995.31 cm**-1
    50:    1000.76 cm**-1
    51:    1029.07 cm**-1
    52:    1046.64 cm**-1
    53:    1082.79 cm**-1
    54:    1084.26 cm**-1
    55:    1107.92 cm**-1
    56:    1134.41 cm**-1
    57:    1148.13 cm**-1
    58:    1161.13 cm**-1
    59:    1172.49 cm**-1
    60:    1181.58 cm**-1
    61:    1188.17 cm**-1
    62:    1220.79 cm**-1
    63:    1225.56 cm**-1
    64:    1257.66 cm**-1
    65:    1272.05 cm**-1
    66:    1285.36 cm**-1
    67:    1324.21 cm**-1
    68:    1342.41 cm**-1
    69:    1355.89 cm**-1
    70:    1412.15 cm**-1
    71:    1422.12 cm**-1
    72:    1447.38 cm**-1
    73:    1452.85 cm**-1
    74:    1457.10 cm**-1
    75:    1470.66 cm**-1
    76:    1478.09 cm**-1
    77:    1492.88 cm**-1
    78:    1501.96 cm**-1
    79:    1505.13 cm**-1
    80:    1531.66 cm**-1
    81:    1537.08 cm**-1
    82:    1548.51 cm**-1
    83:    1601.17 cm**-1
    84:    1633.15 cm**-1
    85:    1647.06 cm**-1
    86:    1661.70 cm**-1
    87:    1743.41 cm**-1
    88:    3024.20 cm**-1
    89:    3029.04 cm**-1
    90:    3076.11 cm**-1
    91:    3080.25 cm**-1
    92:    3150.74 cm**-1
    93:    3169.86 cm**-1
    94:    3173.06 cm**-1
    95:    3176.35 cm**-1
    96:    3176.96 cm**-1
    97:    3186.61 cm**-1
    98:    3189.45 cm**-1
    99:    3191.28 cm**-1
   100:    3201.05 cm**-1
   101:    3201.29 cm**-1

IR SPECTRUM
-----------

 Mode   freq       eps      Int      T**2         TX        TY        TZ
       cm**-1   L/(mol*cm) km/mol    a.u.
----------------------------------------------------------------------------
  6:     23.10   0.000211    1.07  0.002848  (-0.052485 -0.009615  0.000603)
  7:     37.84   0.000534    2.70  0.004406  ( 0.049609 -0.035949  0.025552)
  8:     50.34   0.000153    0.77  0.000949  ( 0.018429 -0.008144  0.023304)
  9:     58.30   0.000967    4.89  0.005178  ( 0.061613  0.032581  0.017900)
 10:     96.93   0.001249    6.31  0.004021  (-0.021242  0.035726 -0.047888)
 11:    103.38   0.001114    5.63  0.003362  ( 0.007065  0.053546 -0.021084)
 12:    113.17   0.000177    0.90  0.000489  (-0.021324  0.005687  0.001459)
 13:    131.98   0.000428    2.16  0.001011  (-0.031290  0.003981 -0.004008)
 14:    204.33   0.000162    0.82  0.000247  (-0.010028  0.001233  0.012036)
 15:    220.39   0.001201    6.07  0.001700  (-0.038096  0.002516  0.015573)
 16:    227.73   0.000638    3.22  0.000874  (-0.029045  0.005419  0.001194)
 17:    232.63   0.001385    7.00  0.001857  (-0.003641 -0.026098  0.034102)
 18:    246.40   0.000256    1.29  0.000324  (-0.013531 -0.007019 -0.009554)
 19:    297.05   0.000146    0.74  0.000154  (-0.000511 -0.007744  0.009666)
 20:    366.99   0.003246   16.40  0.002760  (-0.018782  0.042729  0.024111)
 21:    376.63   0.001615    8.16  0.001338  ( 0.016383 -0.032022 -0.006646)
 22:    409.66   0.000780    3.94  0.000594  ( 0.011346 -0.009827 -0.019202)
 23:    421.02   0.000051    0.26  0.000038  ( 0.003008 -0.004449 -0.002975)
 24:    463.54   0.001840    9.30  0.001239  (-0.014470  0.024815 -0.020341)
 25:    488.81   0.000145    0.73  0.000093  ( 0.002611 -0.004606 -0.008049)
 26:    509.46   0.000051    0.26  0.000031  ( 0.004634  0.003126 -0.000352)
 27:    519.35   0.001063    5.37  0.000639  (-0.000624  0.025068 -0.003137)
 28:    524.65   0.000985    4.98  0.000586  ( 0.022577  0.007218  0.004916)
 29:    561.25   0.001209    6.11  0.000672  ( 0.013180  0.014659  0.016836)
 30:    582.09   0.000214    1.08  0.000115  (-0.005739  0.000622  0.009019)
 31:    607.40   0.001604    8.11  0.000824  (-0.018877  0.003908  0.021269)
 32:    623.15   0.002474   12.50  0.001239  (-0.030578 -0.014901  0.009041)
 33:    659.12   0.001918    9.69  0.000908  ( 0.020448  0.009620  0.019936)
 34:    701.60   0.000469    2.37  0.000209  (-0.009357  0.005031  0.009795)
 35:    729.80   0.002014   10.18  0.000861  ( 0.009525 -0.016179  0.022550)
 36:    735.99   0.013816   69.82  0.005858  (-0.029530 -0.063956  0.029925)
 37:    739.22   0.010507   53.10  0.004435  ( 0.057314 -0.011357  0.031962)
 38:    773.21   0.004719   23.85  0.001904  ( 0.012642 -0.017237  0.038045)
 39:    800.75   0.000258    1.30  0.000100  ( 0.003331  0.009263 -0.001861)
 40:    823.74   0.003908   19.75  0.001480  ( 0.021265 -0.003593  0.031865)
 41:    833.28   0.003888   19.65  0.001456  (-0.020006 -0.000294  0.032494)
 42:    853.72   0.010747   54.31  0.003928  ( 0.007548 -0.039396  0.048160)
 43:    868.06   0.013188   66.65  0.004741  ( 0.014767 -0.060389  0.029599)
 44:    870.66   0.001252    6.33  0.000449  ( 0.005755  0.020387 -0.000175)
 45:    921.94   0.000662    3.35  0.000224  (-0.004510  0.012798  0.006322)
 46:    965.33   0.000112    0.57  0.000036  (-0.000687  0.004270 -0.004185)
 47:    979.44   0.000077    0.39  0.000024  (-0.000014 -0.002614  0.004193)
 48:    987.90   0.000140    0.71  0.000044  (-0.000305 -0.002727  0.006047)
 49:    995.31   0.004895   24.74  0.001535  (-0.017229 -0.002485  0.035097)
 50:   1000.76   0.000196    0.99  0.000061  ( 0.000768 -0.005558  0.005436)
 51:   1029.07   0.009096   45.97  0.002758  ( 0.044394 -0.027998 -0.001857)
 52:   1046.64   0.008657   43.75  0.002581  ( 0.027495 -0.042709 -0.001058)
 53:   1082.79   0.003911   19.76  0.001127  ( 0.010337 -0.031830 -0.002684)
 54:   1084.26   0.001310    6.62  0.000377  (-0.002416  0.016385 -0.010130)
 55:   1107.92   0.000578    2.92  0.000163  (-0.012129 -0.003383 -0.002047)
 56:   1134.41   0.000745    3.77  0.000205  (-0.005769  0.013104 -0.000265)
 57:   1148.13   0.006715   33.94  0.001825  (-0.009379 -0.037683 -0.017811)
 58:   1161.13   0.195283  986.88  0.052484  (-0.103510  0.172870  0.109022)
 59:   1172.49   0.002963   14.97  0.000789  (-0.006997  0.020884  0.017419)
 60:   1181.58   0.008819   44.57  0.002329  (-0.014316  0.042592  0.017614)
 61:   1188.17   0.003493   17.65  0.000917  ( 0.013907 -0.026426 -0.005070)
 62:   1220.79   0.004464   22.56  0.001141  (-0.008631  0.028412  0.016102)
 63:   1225.56   0.008976   45.36  0.002286  (-0.022227  0.037849  0.018948)
 64:   1257.66   0.029199  147.56  0.007245  (-0.050026  0.063933  0.025597)
 65:   1272.05   0.004506   22.77  0.001105  (-0.011742  0.029731  0.009138)
 66:   1285.36   0.002894   14.62  0.000703  ( 0.003623  0.020775 -0.016059)
 67:   1324.21   0.003013   15.22  0.000710  ( 0.017807 -0.015455 -0.012410)
 68:   1342.41   0.006362   32.15  0.001479  (-0.020916  0.025252  0.020098)
 69:   1355.89   0.001938    9.80  0.000446  ( 0.015054 -0.011015 -0.009909)
 70:   1412.15   0.022602  114.22  0.004995  ( 0.007117  0.057717  0.040160)
 71:   1422.12   0.045579  230.34  0.010002  (-0.046440  0.076903  0.043942)
 72:   1447.38   0.003579   18.09  0.000772  ( 0.003117  0.005039 -0.027141)
 73:   1452.85   0.002037   10.30  0.000438  (-0.002416 -0.017978 -0.010420)
 74:   1457.10   0.005831   29.47  0.001249  (-0.000931 -0.027798 -0.021802)
 75:   1470.66   0.008208   41.48  0.001742  ( 0.028431 -0.027813  0.012639)
 76:   1478.09   0.002968   15.00  0.000627  (-0.015957 -0.011601  0.015408)
 77:   1492.88   0.000237    1.20  0.000050  ( 0.002900  0.001404 -0.006257)
 78:   1501.96   0.006104   30.85  0.001268  (-0.035231 -0.004726 -0.002169)
 79:   1505.13   0.004276   21.61  0.000887  ( 0.007754  0.021627 -0.018939)
 80:   1531.66   0.001378    6.96  0.000281  ( 0.013178 -0.008361  0.006097)
 81:   1537.08   0.014561   73.59  0.002956  ( 0.013684 -0.052255 -0.006200)
 82:   1548.51   0.010381   52.46  0.002092  (-0.024311  0.033862  0.018822)
 83:   1601.17   0.007970   40.28  0.001553  ( 0.037803 -0.004533 -0.010185)
 84:   1633.15   0.010927   55.22  0.002088  (-0.008792 -0.033695 -0.029584)
 85:   1647.06   0.001243    6.28  0.000236  (-0.007846 -0.009006 -0.009636)
 86:   1661.70   0.004296   21.71  0.000807  ( 0.027493  0.007141 -0.000101)
 87:   1743.41   0.176104  889.96  0.031522  ( 0.034187  0.006513 -0.174100)
 88:   3024.20   0.007235   36.56  0.000747  (-0.002401  0.023852 -0.013110)
 89:   3029.04   0.024820  125.43  0.002557  (-0.000964 -0.028989 -0.041421)
 90:   3076.11   0.021880  110.57  0.002220  (-0.046805 -0.003619  0.003990)
 91:   3080.25   0.001381    6.98  0.000140  (-0.011735  0.001236 -0.000826)
 92:   3150.74   0.009494   47.98  0.000940  (-0.004148  0.021553  0.021414)
 93:   3169.86   0.000320    1.61  0.000031  ( 0.005180  0.001930  0.000947)
 94:   3173.06   0.001699    8.58  0.000167  ( 0.000269 -0.004128  0.012245)
 95:   3176.35   0.001151    5.82  0.000113  (-0.008761  0.003326  0.005028)
 96:   3176.96   0.001661    8.39  0.000163  ( 0.012108 -0.001911 -0.003591)
 97:   3186.61   0.005009   25.31  0.000491  (-0.019051  0.006396  0.009311)
 98:   3189.45   0.009665   48.85  0.000946  (-0.008252  0.020968  0.020927)
 99:   3191.28   0.001833    9.26  0.000179  (-0.003127  0.012985  0.000920)
100:   3201.05   0.011044   55.81  0.001077  ( 0.023894  0.018336  0.013020)
101:   3201.29   0.000283    1.43  0.000028  (-0.001369 -0.003435 -0.003730)

--------------------------
THERMOCHEMISTRY AT 298.15K
--------------------------

Temperature         ...   298.15 K
Pressure            ...     1.00 atm
Total Mass          ...   266.30 AMU
Quasi RRHO          ...     True
Cut-Off Frequency   ...     1.00 cm^-1

Throughout the following assumptions are being made:
  (1) The electronic state is orbitally nondegenerate
  (2) There are no thermally accessible electronically excited states
  (3) Hindered rotations indicated by low frequency modes are not
      treated as such but are treated as vibrations and this may
      cause some error
  (4) All equations used are the standard statistical mechanics
      equations for an ideal gas
  (5) All vibrations are strictly harmonic

freq.      23.10  E(vib)   ...       0.56
freq.      37.84  E(vib)   ...       0.54
freq.      50.34  E(vib)   ...       0.52
freq.      58.30  E(vib)   ...       0.51
freq.      96.93  E(vib)   ...       0.46
freq.     103.38  E(vib)   ...       0.46
freq.     113.17  E(vib)   ...       0.45
freq.     131.98  E(vib)   ...       0.42
freq.     204.33  E(vib)   ...       0.35
freq.     220.39  E(vib)   ...       0.33
freq.     227.73  E(vib)   ...       0.33
freq.     232.63  E(vib)   ...       0.32
freq.     246.40  E(vib)   ...       0.31
freq.     297.05  E(vib)   ...       0.27
freq.     366.99  E(vib)   ...       0.22
freq.     376.63  E(vib)   ...       0.21
freq.     409.66  E(vib)   ...       0.19
freq.     421.02  E(vib)   ...       0.18
freq.     463.54  E(vib)   ...       0.16
freq.     488.81  E(vib)   ...       0.15
freq.     509.46  E(vib)   ...       0.14
freq.     519.35  E(vib)   ...       0.13
freq.     524.65  E(vib)   ...       0.13
freq.     561.25  E(vib)   ...       0.11
freq.     582.09  E(vib)   ...       0.11
freq.     607.40  E(vib)   ...       0.10
freq.     623.15  E(vib)   ...       0.09
freq.     659.12  E(vib)   ...       0.08
freq.     701.60  E(vib)   ...       0.07
freq.     729.80  E(vib)   ...       0.06
freq.     735.99  E(vib)   ...       0.06
freq.     739.22  E(vib)   ...       0.06
freq.     773.21  E(vib)   ...       0.05
freq.     800.75  E(vib)   ...       0.05
freq.     823.74  E(vib)   ...       0.05
freq.     833.28  E(vib)   ...       0.04
freq.     853.72  E(vib)   ...       0.04
freq.     868.06  E(vib)   ...       0.04
freq.     870.66  E(vib)   ...       0.04
freq.     921.94  E(vib)   ...       0.03
freq.     965.33  E(vib)   ...       0.03
freq.     979.44  E(vib)   ...       0.03
freq.     987.90  E(vib)   ...       0.02
freq.     995.31  E(vib)   ...       0.02
freq.    1000.76  E(vib)   ...       0.02
freq.    1029.07  E(vib)   ...       0.02
freq.    1046.64  E(vib)   ...       0.02
freq.    1082.79  E(vib)   ...       0.02
freq.    1084.26  E(vib)   ...       0.02
freq.    1107.92  E(vib)   ...       0.02
freq.    1134.41  E(vib)   ...       0.01
freq.    1148.13  E(vib)   ...       0.01
freq.    1161.13  E(vib)   ...       0.01
freq.    1172.49  E(vib)   ...       0.01
freq.    1181.58  E(vib)   ...       0.01
freq.    1188.17  E(vib)   ...       0.01
freq.    1220.79  E(vib)   ...       0.01
freq.    1225.56  E(vib)   ...       0.01
freq.    1257.66  E(vib)   ...       0.01
freq.    1272.05  E(vib)   ...       0.01
freq.    1285.36  E(vib)   ...       0.01
freq.    1324.21  E(vib)   ...       0.01
freq.    1342.41  E(vib)   ...       0.01
freq.    1355.89  E(vib)   ...       0.01
freq.    1412.15  E(vib)   ...       0.00
freq.    1422.12  E(vib)   ...       0.00
freq.    1447.38  E(vib)   ...       0.00
freq.    1452.85  E(vib)   ...       0.00
freq.    1457.10  E(vib)   ...       0.00
freq.    1470.66  E(vib)   ...       0.00
freq.    1478.09  E(vib)   ...       0.00
freq.    1492.88  E(vib)   ...       0.00
freq.    1501.96  E(vib)   ...       0.00
freq.    1505.13  E(vib)   ...       0.00
freq.    1531.66  E(vib)   ...       0.00
freq.    1537.08  E(vib)   ...       0.00
freq.    1548.51  E(vib)   ...       0.00
freq.    1601.17  E(vib)   ...       0.00
freq.    1633.15  E(vib)   ...       0.00
freq.    1647.06  E(vib)   ...       0.00
freq.    1661.70  E(vib)   ...       0.00
freq.    1743.41  E(vib)   ...       0.00
freq.    3024.20  E(vib)   ...       0.00
freq.    3029.04  E(vib)   ...       0.00
freq.    3076.11  E(vib)   ...       0.00
freq.    3080.25  E(vib)   ...       0.00
freq.    3150.74  E(vib)   ...       0.00
freq.    3169.86  E(vib)   ...       0.00
freq.    3173.06  E(vib)   ...       0.00
freq.    3176.35  E(vib)   ...       0.00
freq.    3176.96  E(vib)   ...       0.00
freq.    3186.61  E(vib)   ...       0.00
freq.    3189.45  E(vib)   ...       0.00
freq.    3191.28  E(vib)   ...       0.00
freq.    3201.05  E(vib)   ...       0.00
freq.    3201.29  E(vib)   ...       0.00

------------
INNER ENERGY
------------

The inner energy is: U= E(el) + E(ZPE) + E(vib) + E(rot) + E(trans)
    E(el)   - is the total energy from the electronic structure calculation
              = E(kin-el) + E(nuc-el) + E(el-el) + E(nuc-nuc)
    E(ZPE)  - the the zero temperature vibrational energy from the frequency calculation
    E(vib)  - the the finite temperature correction to E(ZPE) due to population
              of excited vibrational states
    E(rot)  - is the rotational thermal energy
    E(trans)- is the translational thermal energy

Summary of contributions to the inner energy U:
Electronic energy                ...   -878.32940940 Eh
Zero point energy                ...      0.26866022 Eh     168.59 kcal/mol
Thermal vibrational correction   ...      0.01404149 Eh       8.81 kcal/mol
Thermal rotational correction    ...      0.00141627 Eh       0.89 kcal/mol
Thermal translational correction ...      0.00141627 Eh       0.89 kcal/mol
-----------------------------------------------------------------------
Total thermal energy                   -878.04387515 Eh

Summary of corrections to the electronic energy:
(perhaps to be used in another calculation)
Total thermal correction                  0.01687403 Eh      10.59 kcal/mol
Non-thermal (ZPE) correction              0.26866022 Eh     168.59 kcal/mol
-----------------------------------------------------------------------
Total correction                          0.28553425 Eh     179.18 kcal/mol

--------
ENTHALPY
--------

The enthalpy is H = U + kB*T
                kB is Boltzmann's constant
Total thermal energy              ...   -878.04387515 Eh
Thermal Enthalpy correction       ...      0.00094421 Eh       0.59 kcal/mol
-----------------------------------------------------------------------
Total Enthalpy                    ...   -878.04293095 Eh

Note: Only C1 symmetry has been detected, increase convergence thresholds
      if your molecule has a higher symmetry. Symmetry factor of 1.0 is

Rotational constants in cm-1:     0.016107     0.011074     0.007156

                             ****ORCA TERMINATED NORMALLY****
TOTAL RUN TIME: 0 days 3 hours 52 minutes 28 seconds 611 msec
