                         Program Version 6.0.1  -  RELEASE   -
|  1> ! B3LYP/G OPT FREQ 6-311G* CPCM(Water)
|  2>
|  3> %tddft
|  4>     NRoots 3
|  5>     IRoot 1
|  6> end
|  7>
|  8> * xyz 0 1
|  9> C  -3.35376279992966619403 -0.62938332631936966255 -0.98291902019988841577
| 10> C  -2.74163567778435490752 -1.65396753206475333187 -1.70083327012608154227
| 11> C  -1.37556057110036400459 -1.77361463115568529503 -1.68985554185761888135
| 12> C  -2.59377832163920052366 0.28947157483868263261 -0.29126838017414902193
| 13> C  -1.18518256682654898881 0.23058864571862797144 -0.30793397495779634143
| 14> O  -3.28313576694100017761 1.27891215907834410181 0.39253390567276319478
| 15> C  -0.57974430809541521725 -0.84984392244581397069 -0.99518280783768264808
| 16> C  0.83765897162851232771 -0.99941651125977515324 -0.96694484835660599042
| 17> C  1.62532363545541747030 -0.13324257704872946584 -0.29134679365287491359
| 18> C  -0.33981572169269685935 1.20155618808551678534 0.33794909142459522711
| 19> C  1.06099378317829384777 0.99155102761471525241 0.37121776928827338038
| 20> N  -0.89160482556474629501 2.29709441070834641252 0.88020448050241895110
| 21> C  -0.12737892844849171836 3.16172913775715436202 1.50218360694920360920
| 22> C  1.25508534142907479669 3.02054943705290490641 1.63709383834394195389
| 23> C  1.85145982118581375886 1.93049095025746342280 1.05206844754513428875
| 24> C  -3.04214894254066781087 1.40620577357731368906 1.72629620845151654507
| 25> O  -2.49568855261252986466 0.53024716228100599036 2.38580922339505407948
| 26> N  -3.57862348866780832779 2.51502633883670112525 2.24077142925116401528
| 27> C  -3.46729674865841852593 2.78653267554346806278 3.65577445111836807357
| 28> C  -4.19915828413403158237 3.55718519172478275792 1.45473877439351650942
| 29> H  -4.19595577246243678360 3.28081188523075040209 0.40597626620533888708
| 30> H  -3.64686879558558540992 4.48869862025915988823 1.58512593768511966807
| 31> H  -5.22622419340026755918 3.70114038984416060529 1.79233111571136438656
| 32> H  -2.97556703009237244473 1.94347967362822404702 4.13612545209459003814
| 33> H  -4.46095812968806182397 2.92338571226544274850 4.08294430685029841044
| 34> H  -2.87785541639052455665 3.69005593182455582379 3.81659500312575428183
| 35> H  -0.89127192018300471776 -2.58341459768552850207 -2.21303302893003905893
| 36> H  -4.42821531638336018943 -0.54075895530933260069 -0.94729975834403012946
| 37> H  -3.35144855982815181861 -2.36092499855638804362 -2.24025591010660996005
| 38> H  1.26473192443005877372 -1.84010580558807324003 -1.49198213931114054276
| 39> H  2.69645568134601498755 -0.26306532522173181610 -0.25034568316961969270
| 40> H  -0.64266899218879569577 4.01984478260729538590 1.91199369323563916900
| 41> H  1.82759222514087293909 3.75875270627759405784 2.17456109445499290445
| 42> H  2.92040825966053807505 1.78225782008492328323 1.10128704506063868074
| 43> *
| 44>
| 45>                          ****END OF INPUT****
 Total Charge           Charge          ....    0
 Multiplicity           Mult            ....    1
 Number of Electrons    NEL             ....  140
FINAL SINGLE POINT ENERGY      -878.179188748378
FINAL SINGLE POINT ENERGY      -878.188871171969
FINAL SINGLE POINT ENERGY      -878.190389884323
FINAL SINGLE POINT ENERGY      -878.191930466248
FINAL SINGLE POINT ENERGY      -878.192277295848
FINAL SINGLE POINT ENERGY      -878.192404285864
FINAL SINGLE POINT ENERGY      -878.192423830991
FINAL SINGLE POINT ENERGY      -878.192432147958
FINAL SINGLE POINT ENERGY      -878.192437546914
FINAL SINGLE POINT ENERGY      -878.192439737491
FINAL SINGLE POINT ENERGY      -878.192450315851
FINAL SINGLE POINT ENERGY      -878.192460207282
FINAL SINGLE POINT ENERGY      -878.192460988399
FINAL SINGLE POINT ENERGY      -878.192472805926
FINAL SINGLE POINT ENERGY      -878.192483504454
FINAL SINGLE POINT ENERGY      -878.192484853590
FINAL SINGLE POINT ENERGY      -878.192491764965
FINAL SINGLE POINT ENERGY      -878.192488907093
FINAL SINGLE POINT ENERGY      -878.192489666132
                    ***********************HURRAY********************

CARTESIAN COORDINATES (ANGSTROEM)
---------------------------------
  C     -3.351564   -0.589621   -1.004966
  C     -2.762358   -1.619749   -1.743249
  C     -1.381312   -1.773816   -1.696081
  C     -2.567775    0.290286   -0.239498
  C     -1.137116    0.241316   -0.247041
  O     -3.299373    1.194627    0.468602
  C     -0.554241   -0.878609   -0.962538
  C      0.836884   -1.051875   -0.956987
  C      1.665710   -0.145857   -0.292869
  C     -0.279902    1.240738    0.325371
  C      1.149936    1.008868    0.331848
  N     -0.816394    2.381260    0.841941
  C      0.017216    3.256170    1.449142
  C      1.393526    3.084545    1.563632
  C      1.983953    1.957067    0.979472
  C     -3.114244    1.338877    1.847702
  O     -2.566885    0.479792    2.506200
  N     -3.735029    2.444163    2.301685
  C     -3.674283    2.737874    3.729963
  C     -4.230968    3.517304    1.444888
  H     -4.401675    3.154858    0.436847
  H     -3.513931    4.344058    1.409218
  H     -5.172379    3.889468    1.853474
  H     -3.410546    1.837698    4.277326
  H     -4.650022    3.093613    4.066425
  H     -2.928993    3.513387    3.935106
  H     -0.905335   -2.583341   -2.239502
  H     -4.427938   -0.473752   -0.959768
  H     -3.376890   -2.305729   -2.313255
  H      1.267776   -1.899867   -1.478261
  H      2.737314   -0.318175   -0.268116
  H     -0.454161    4.153114    1.843656
  H      1.992269    3.837590    2.064479
  H      3.056891    1.801547    0.999534

 Multiplicity           Mult            ....    1
 Number of Electrons    NEL             ....  140
 Basis Dimension        Dim             ....  402

ORBITAL ENERGIES
----------------

  NO   OCC          E(Eh)            E(eV)
   0   2.0000     -19.164795      -521.5006
   1   2.0000     -19.093395      -519.5577
   2   2.0000     -14.347779      -390.4229
   3   2.0000     -14.317558      -389.6006
   4   2.0000     -10.322455      -280.8883
   5   2.0000     -10.250720      -278.9363
   6   2.0000     -10.227549      -278.3058
   7   2.0000     -10.214275      -277.9446
   8   2.0000     -10.201066      -277.5851
   9   2.0000     -10.199168      -277.5335
  10   2.0000     -10.198722      -277.5213
  11   2.0000     -10.198412      -277.5129
  12   2.0000     -10.195229      -277.4263
  13   2.0000     -10.194766      -277.4137
  14   2.0000     -10.186256      -277.1821
  15   2.0000     -10.185686      -277.1666
  16   2.0000     -10.184889      -277.1449
  17   2.0000     -10.184210      -277.1264
  18   2.0000     -10.180716      -277.0314
  19   2.0000     -10.180264      -277.0191
  20   2.0000      -1.115164       -30.3452
  21   2.0000      -1.028538       -27.9879
  22   2.0000      -0.949659       -25.8415
  23   2.0000      -0.947296       -25.7772
  24   2.0000      -0.876684       -23.8558
  25   2.0000      -0.835415       -22.7328
  26   2.0000      -0.806765       -21.9532
  27   2.0000      -0.782006       -21.2795
  28   2.0000      -0.751802       -20.4576
  29   2.0000      -0.741804       -20.1855
  30   2.0000      -0.722181       -19.6515
  31   2.0000      -0.705585       -19.1999
  32   2.0000      -0.659631       -17.9495
  33   2.0000      -0.648564       -17.6483
  34   2.0000      -0.627136       -17.0652
  35   2.0000      -0.621976       -16.9248
  36   2.0000      -0.571962       -15.5639
  37   2.0000      -0.547781       -14.9059
  38   2.0000      -0.537914       -14.6374
  39   2.0000      -0.530273       -14.4295
  40   2.0000      -0.511211       -13.9108
  41   2.0000      -0.497930       -13.5494
  42   2.0000      -0.490539       -13.3482
  43   2.0000      -0.483720       -13.1627
  44   2.0000      -0.480198       -13.0669
  45   2.0000      -0.464040       -12.6272
  46   2.0000      -0.445381       -12.1194
  47   2.0000      -0.443767       -12.0755
  48   2.0000      -0.436561       -11.8794
  49   2.0000      -0.429045       -11.6749
  50   2.0000      -0.422279       -11.4908
  51   2.0000      -0.411512       -11.1978
  52   2.0000      -0.408091       -11.1047
  53   2.0000      -0.405920       -11.0457
  54   2.0000      -0.404470       -11.0062
  55   2.0000      -0.402106       -10.9419
  56   2.0000      -0.387332       -10.5398
  57   2.0000      -0.385571       -10.4919
  58   2.0000      -0.375276       -10.2118
  59   2.0000      -0.366093        -9.9619
  60   2.0000      -0.355111        -9.6631
  61   2.0000      -0.339221        -9.2307
  62   2.0000      -0.320405        -8.7187
  63   2.0000      -0.307335        -8.3630
  64   2.0000      -0.289491        -7.8775
  65   2.0000      -0.277113        -7.5406
  66   2.0000      -0.268293        -7.3006
  67   2.0000      -0.252060        -6.8589
  68   2.0000      -0.245534        -6.6813
  69   2.0000      -0.219541        -5.9740
  70   0.0000      -0.069840        -1.9004
  71   0.0000      -0.056251        -1.5307
  72   0.0000      -0.014160        -0.3853
  73   0.0000       0.013052         0.3552
  74   0.0000       0.037745         1.0271

----------------------------------------------------------------------------------------------------
                     ABSORPTION SPECTRUM VIA TRANSITION ELECTRIC DIPOLE MOMENTS
----------------------------------------------------------------------------------------------------
     Transition      Energy     Energy  Wavelength fosc(D2)      D2        DX        DY        DZ
                      (eV)      (cm-1)    (nm)                 (au**2)    (au)      (au)      (au)
----------------------------------------------------------------------------------------------------
  0-1A  ->  1-1A    3.496386   28200.3   354.6   0.280288103   3.27210   1.37595   0.97096   0.66038
  0-1A  ->  2-1A    3.922104   31633.9   316.1   0.193177527   2.01039   0.30797   1.11843   0.81526
  0-1A  ->  3-1A    4.259096   34351.9   291.1   0.025199968   0.24150  -0.26436   0.24830   0.33161

MULLIKEN ATOMIC CHARGES
-----------------------
   0 C :   -0.207775
   1 C :   -0.224601
   2 C :   -0.176684
   3 C :    0.230389
   4 C :   -0.005898
   5 O :   -0.355366
   6 C :    0.004190
   7 C :   -0.216712
   8 C :   -0.236538
   9 C :    0.140626
  10 C :    0.006904
  11 N :   -0.437050
  12 C :   -0.078700
  13 C :   -0.307050
  14 C :   -0.184919
  15 C :    0.576832
  16 O :   -0.433109
  17 N :   -0.327973
  18 C :   -0.526663
  19 C :   -0.522005
  20 H :    0.248134
  21 H :    0.235391
  22 H :    0.238025
  23 H :    0.238412
  24 H :    0.240435
  25 H :    0.236855
  26 H :    0.247944
  27 H :    0.245630
  28 H :    0.238842
  29 H :    0.237593
  30 H :    0.231007
  31 H :    0.212886
  32 H :    0.214004
  33 H :    0.216944
Sum of atomic charges:    0.0000000

LOEWDIN ATOMIC CHARGES
----------------------
   0 C :   -0.089193
   1 C :   -0.120716
   2 C :   -0.024931
   3 C :    0.025056
   4 C :   -0.070650
   5 O :    0.084120
   6 C :   -0.048974
   7 C :   -0.080931
   8 C :   -0.083748
   9 C :   -0.019261
  10 C :   -0.043391
  11 N :   -0.093621
  12 C :   -0.118988
  13 C :   -0.154195
  14 C :   -0.149916
  15 C :   -0.100617
  16 O :   -0.167903
  17 N :    0.043438
  18 C :   -0.237525
  19 C :   -0.240497
  20 H :    0.119989
  21 H :    0.112502
  22 H :    0.118057
  23 H :    0.119051
  24 H :    0.118547
  25 H :    0.113731
  26 H :    0.134692
  27 H :    0.132582
  28 H :    0.130642
  29 H :    0.129283
  30 H :    0.125688
  31 H :    0.103108
  32 H :    0.118170
  33 H :    0.116403

  Mayer bond orders larger than 0.100000
B(  0-C ,  1-C ) :   1.3569 B(  0-C ,  3-C ) :   1.3592 B(  0-C , 27-H ) :   0.9131
B(  1-C ,  2-C ) :   1.4106 B(  1-C , 28-H ) :   0.9233 B(  2-C ,  6-C ) :   1.2462
B(  2-C , 26-H ) :   0.9144 B(  3-C ,  4-C ) :   1.1815 B(  3-C ,  5-O ) :   0.9894
B(  4-C ,  6-C ) :   1.2125 B(  4-C ,  9-C ) :   1.2668 B(  5-O , 15-C ) :   0.9441
B(  6-C ,  7-C ) :   1.3401 B(  7-C ,  8-C ) :   1.3789 B(  7-C , 29-H ) :   0.9184
B(  8-C , 10-C ) :   1.3035 B(  8-C , 30-H ) :   0.9233 B(  9-C , 10-C ) :   1.1568
B(  9-C , 11-N ) :   1.4120 B( 10-C , 14-C ) :   1.2630 B( 11-N , 12-C ) :   1.3856
B( 12-C , 13-C ) :   1.4096 B( 12-C , 31-H ) :   0.9310 B( 13-C , 14-C ) :   1.3366
B( 13-C , 32-H ) :   0.9281 B( 14-C , 33-H ) :   0.9328 B( 15-C , 16-O ) :   1.9112
B( 15-C , 17-N ) :   1.2241 B( 17-N , 18-C ) :   0.9595 B( 17-N , 19-C ) :   0.9497
B( 18-C , 23-H ) :   0.9164 B( 18-C , 24-H ) :   0.9195 B( 18-C , 25-H ) :   0.9146
B( 19-C , 20-H ) :   0.9143 B( 19-C , 21-H ) :   0.9107 B( 19-C , 22-H ) :   0.9190

FINAL SINGLE POINT ENERGY      -878.192490204332

DIPOLE MOMENT
-------------

Method             : TDA/CIS
Type of density    : Electron Density
Level              : Relaxed density
State              :   1
Multiplicity       :   1
Irrep              :   0
Energy             :     0.0000000000000000 Eh
Relativity type    :
Basis              : AO
                                X                 Y                 Z
Electronic contribution:      3.546936079      -7.540360344      -5.903245935
Nuclear contribution   :     -4.288650077       7.468793404       4.942035760
                        -----------------------------------------
Total Dipole Moment    :     -0.741713998      -0.071566940      -0.961210176
                        -----------------------------------------
Magnitude (a.u.)       :      1.216218107
Magnitude (Debye)      :      3.091380751

VIBRATIONAL FREQUENCIES
-----------------------

Scaling factor for frequencies =  1.000000000  (already applied!)

     0:       0.00 cm**-1
     1:       0.00 cm**-1
     2:       0.00 cm**-1
     3:       0.00 cm**-1
     4:       0.00 cm**-1
     5:       0.00 cm**-1
     6:      33.61 cm**-1
     7:      40.77 cm**-1
     8:      46.59 cm**-1
     9:      65.19 cm**-1
    10:      87.51 cm**-1
    11:     108.27 cm**-1
    12:     112.89 cm**-1
    13:     138.90 cm**-1
    14:     181.89 cm**-1
    15:     198.59 cm**-1
    16:     209.78 cm**-1
    17:     230.22 cm**-1
    18:     258.16 cm**-1
    19:     278.89 cm**-1
    20:     353.17 cm**-1
    21:     364.41 cm**-1
    22:     367.53 cm**-1
    23:     403.83 cm**-1
    24:     449.31 cm**-1
    25:     457.78 cm**-1
    26:     463.12 cm**-1
    27:     493.00 cm**-1
    28:     508.15 cm**-1
    29:     524.52 cm**-1
    30:     537.79 cm**-1
    31:     580.09 cm**-1
    32:     597.78 cm**-1
    33:     630.95 cm**-1
    34:     667.26 cm**-1
    35:     670.03 cm**-1
    36:     688.51 cm**-1
    37:     702.61 cm**-1
    38:     712.13 cm**-1
    39:     746.08 cm**-1
    40:     780.29 cm**-1
    41:     810.42 cm**-1
    42:     817.67 cm**-1
    43:     828.58 cm**-1
    44:     837.92 cm**-1
    45:     848.68 cm**-1
    46:     896.19 cm**-1
    47:     918.45 cm**-1
    48:     928.93 cm**-1
    49:     944.67 cm**-1
    50:     973.94 cm**-1
    51:     999.16 cm**-1
    52:    1018.02 cm**-1
    53:    1068.55 cm**-1
    54:    1084.96 cm**-1
    55:    1090.14 cm**-1
    56:    1095.58 cm**-1
    57:    1114.32 cm**-1
    58:    1130.20 cm**-1
    59:    1132.93 cm**-1
    60:    1170.54 cm**-1
    61:    1178.61 cm**-1
    62:    1202.55 cm**-1
    63:    1208.04 cm**-1
    64:    1255.38 cm**-1
    65:    1258.79 cm**-1
    66:    1283.18 cm**-1
    67:    1288.13 cm**-1
    68:    1334.37 cm**-1
    69:    1367.02 cm**-1
    70:    1382.11 cm**-1
    71:    1409.64 cm**-1
    72:    1417.78 cm**-1
    73:    1425.23 cm**-1
    74:    1451.40 cm**-1
    75:    1456.34 cm**-1
    76:    1461.19 cm**-1
    77:    1471.41 cm**-1
    78:    1490.30 cm**-1
    79:    1500.36 cm**-1
    80:    1502.80 cm**-1
    81:    1503.49 cm**-1
    82:    1517.44 cm**-1
    83:    1531.88 cm**-1
    84:    1548.02 cm**-1
    85:    1554.06 cm**-1
    86:    1573.04 cm**-1
    87:    1765.04 cm**-1
    88:    3024.60 cm**-1
    89:    3029.49 cm**-1
    90:    3094.52 cm**-1
    91:    3096.47 cm**-1
    92:    3151.67 cm**-1
    93:    3168.75 cm**-1
    94:    3179.15 cm**-1
    95:    3183.62 cm**-1
    96:    3186.90 cm**-1
    97:    3187.98 cm**-1
    98:    3195.52 cm**-1
    99:    3198.02 cm**-1
   100:    3200.62 cm**-1
   101:    3219.27 cm**-1

IR SPECTRUM
-----------

 Mode   freq       eps      Int      T**2         TX        TY        TZ
       cm**-1   L/(mol*cm) km/mol    a.u.
----------------------------------------------------------------------------
  6:     33.61   0.000163    0.82  0.001510  (-0.010029  0.001127  0.037522)
  7:     40.77   0.001732    8.75  0.013259  (-0.095885 -0.058129  0.026189)
  8:     46.59   0.000379    1.91  0.002537  ( 0.006795  0.002752  0.049837)
  9:     65.19   0.000344    1.74  0.001647  (-0.028773  0.023648  0.016117)
 10:     87.51   0.001885    9.53  0.006722  ( 0.015219  0.053544 -0.060196)
 11:    108.27   0.000202    1.02  0.000583  ( 0.020023  0.011325  0.007317)
 12:    112.89   0.000334    1.69  0.000924  (-0.008448 -0.008402 -0.027963)
 13:    138.90   0.000627    3.17  0.001408  ( 0.032010  0.001918 -0.019478)
 14:    181.89   0.000406    2.05  0.000697  (-0.017840  0.011766  0.015508)
 15:    198.59   0.001024    5.18  0.001610  (-0.014975  0.026151 -0.026486)
 16:    209.78   0.000240    1.21  0.000357  (-0.004174 -0.010900  0.014865)
 17:    230.22   0.001335    6.75  0.001810  ( 0.037112 -0.020795  0.000558)
 18:    258.16   0.000981    4.96  0.001186  (-0.031757  0.003014  0.012991)
 19:    278.89   0.000298    1.50  0.000333  ( 0.006486 -0.003422  0.016708)
 20:    353.17   0.000629    3.18  0.000556  ( 0.019029 -0.009538 -0.010130)
 21:    364.41   0.000953    4.82  0.000816  (-0.005879  0.000874  0.027943)
 22:    367.53   0.003871   19.56  0.003287  ( 0.021003 -0.027226 -0.045874)
 23:    403.83   0.001655    8.36  0.001279  ( 0.019809 -0.026270 -0.014015)
 24:    449.31   0.000897    4.53  0.000623  ( 0.000944  0.021176 -0.013184)
 25:    457.78   0.000485    2.45  0.000331  (-0.016852  0.003480  0.005896)
 26:    463.12   0.000204    1.03  0.000137  ( 0.000554 -0.009233  0.007183)
 27:    493.00   0.000091    0.46  0.000058  ( 0.000858 -0.007512 -0.000740)
 28:    508.15   0.001697    8.58  0.001042  (-0.010146 -0.018985 -0.024064)
 29:    524.52   0.000504    2.55  0.000300  ( 0.011573  0.012511  0.003091)
 30:    537.79   0.000869    4.39  0.000504  ( 0.012255  0.017181  0.007682)
 31:    580.09   0.000713    3.60  0.000384  (-0.018768 -0.003524  0.004350)
 32:    597.78   0.006888   34.81  0.003596  ( 0.042246  0.023545  0.035450)
 33:    630.95   0.007338   37.08  0.003629  (-0.003029 -0.059886 -0.005803)
 34:    667.26   0.013969   70.60  0.006533  ( 0.009270  0.023316 -0.076835)
 35:    670.03   0.001008    5.09  0.000469  (-0.003744  0.019391 -0.008904)
 36:    688.51   0.003673   18.56  0.001665  ( 0.003423 -0.010740  0.039216)
 37:    702.61   0.007516   37.98  0.003338  (-0.044294 -0.035524 -0.010694)
 38:    712.13   0.004675   23.62  0.002049  (-0.037735 -0.022489  0.010903)
 39:    746.08   0.003176   16.05  0.001328  ( 0.004055  0.035960 -0.004343)
 40:    780.29   0.007906   39.95  0.003162  ( 0.010368  0.050403 -0.022668)
 41:    810.42   0.007472   37.76  0.002877  ( 0.009420  0.032169 -0.041877)
 42:    817.67   0.007607   38.44  0.002903  (-0.020839  0.013992 -0.047677)
 43:    828.58   0.003039   15.36  0.001145  (-0.001823  0.003682 -0.033583)
 44:    837.92   0.010934   55.26  0.004072  (-0.016063  0.018652  0.058876)
 45:    848.68   0.002631   13.30  0.000967  ( 0.003386  0.030462  0.005296)
 46:    896.19   0.001266    6.40  0.000441  ( 0.013584  0.012857  0.009538)
 47:    918.45   0.000544    2.75  0.000185  (-0.001472 -0.000381 -0.013507)
 48:    928.93   0.000062    0.31  0.000021  ( 0.001654 -0.003882 -0.001739)
 49:    944.67   0.000856    4.33  0.000283  (-0.000650 -0.015274  0.007006)
 50:    973.94   0.028959  146.35  0.009279  (-0.025772  0.023400  0.089818)
 51:    999.16   0.004329   21.88  0.001352  (-0.024935  0.020187  0.017964)
 52:   1018.02   0.038553  194.83  0.011818  ( 0.038435 -0.059687 -0.082331)
 53:   1068.55   0.004139   20.92  0.001209  ( 0.028668  0.019136  0.004552)
 54:   1084.96   0.031001  156.67  0.008917  (-0.022342  0.045196  0.079843)
 55:   1090.14   0.030583  154.56  0.008755  (-0.029207  0.069427  0.055512)
 56:   1095.58   0.011069   55.94  0.003153  (-0.019647 -0.040883 -0.033098)
 57:   1114.32   0.123306  623.14  0.034532  (-0.089255  0.102919  0.126385)
 58:   1130.20   0.012609   63.72  0.003482  (-0.030828  0.023167  0.044660)
 59:   1132.93   0.002947   14.89  0.000812  (-0.015385  0.022145  0.009205)
 60:   1170.54   0.005802   29.32  0.001547  (-0.017944  0.015981  0.031136)
 61:   1178.61   0.001050    5.31  0.000278  ( 0.011763 -0.006547  0.009836)
 62:   1202.55   0.012856   64.97  0.003336  (-0.048560  0.013901  0.028012)
 63:   1208.04   0.011560   58.42  0.002986  (-0.008301  0.026315  0.047168)
 64:   1255.38   0.000158    0.80  0.000039  ( 0.005047  0.003573 -0.001008)
 65:   1258.79   0.029943  151.32  0.007423  ( 0.041862 -0.032621 -0.067872)
 66:   1283.18   0.001938    9.79  0.000471  ( 0.008999  0.018181  0.007736)
 67:   1288.13   0.002553   12.90  0.000619  ( 0.019626 -0.009216  0.012183)
 68:   1334.37   0.022030  111.33  0.005152  ( 0.036231 -0.043761 -0.043866)
 69:   1367.02   0.007768   39.26  0.001773  (-0.027551 -0.026341 -0.017901)
 70:   1382.11   0.000828    4.18  0.000187  (-0.007502 -0.002766 -0.011092)
 71:   1409.64   0.033568  169.64  0.007431  ( 0.035617 -0.049648 -0.060810)
 72:   1417.78   0.009419   47.60  0.002073  (-0.031072  0.021562  0.025352)
 73:   1425.23   0.002526   12.77  0.000553  ( 0.017821 -0.013542 -0.007224)
 74:   1451.40   0.004097   20.71  0.000881  (-0.016333  0.023991 -0.006218)
 75:   1456.34   0.002052   10.37  0.000440  (-0.018604 -0.007197  0.006466)
 76:   1461.19   0.004642   23.46  0.000991  (-0.024839  0.012358  0.014885)
 77:   1471.41   0.005489   27.74  0.001164  ( 0.008684 -0.024116  0.022522)
 78:   1490.30   0.000176    0.89  0.000037  ( 0.002862 -0.000564  0.005315)
 79:   1500.36   0.005872   29.67  0.001221  (-0.034358 -0.005396  0.003421)
 80:   1502.80   0.001762    8.91  0.000366  (-0.013742  0.003122  0.012938)
 81:   1503.49   0.007100   35.88  0.001474  (-0.028110  0.013659 -0.022291)
 82:   1517.44   0.000670    3.39  0.000138  ( 0.008436  0.007200 -0.003843)
 83:   1531.88   0.014661   74.09  0.002987  ( 0.018350 -0.027732 -0.043369)
 84:   1548.02   0.003508   17.73  0.000707  ( 0.020268 -0.016927 -0.003147)
 85:   1554.06   0.005799   29.30  0.001164  (-0.030429 -0.009683 -0.012030)
 86:   1573.04   0.003735   18.88  0.000741  (-0.013433  0.020390  0.012034)
 87:   1765.04   0.177070  894.84  0.031306  (-0.081481  0.152296 -0.038383)
 88:   3024.60   0.008291   41.90  0.000855  (-0.003541  0.017753 -0.022972)
 89:   3029.49   0.021579  109.05  0.002223  (-0.003602 -0.042889 -0.019247)
 90:   3094.52   0.016077   81.24  0.001621  (-0.039029 -0.002326  0.009620)
 91:   3096.47   0.003689   18.64  0.000372  ( 0.018983 -0.002686 -0.002048)
 92:   3151.67   0.005641   28.51  0.000559  ( 0.008486 -0.020058 -0.009175)
 93:   3168.75   0.001703    8.61  0.000168  ( 0.003779 -0.011023  0.005654)
 94:   3179.15   0.000209    1.05  0.000020  ( 0.004085  0.001592  0.001129)
 95:   3183.62   0.004677   23.63  0.000458  ( 0.011391 -0.016383 -0.007762)
 96:   3186.90   0.001694    8.56  0.000166  (-0.003762 -0.003870 -0.011694)
 97:   3187.98   0.004498   22.73  0.000440  ( 0.017768 -0.008849 -0.006804)
 98:   3195.52   0.000604    3.05  0.000059  (-0.006410  0.004205  0.000471)
 99:   3198.02   0.009274   46.87  0.000905  ( 0.019462  0.018635  0.013379)
100:   3200.62   0.007669   38.76  0.000748  (-0.012401  0.020667  0.012918)
101:   3219.27   0.004341   21.94  0.000421  (-0.014670 -0.010865 -0.009358)

--------------------------
THERMOCHEMISTRY AT 298.15K
--------------------------

Temperature         ...   298.15 K
Pressure            ...     1.00 atm
Total Mass          ...   266.30 AMU
Quasi RRHO          ...     True
Cut-Off Frequency   ...     1.00 cm^-1

Throughout the following assumptions are being made:
  (1) The electronic state is orbitally nondegenerate
  (2) There are no thermally accessible electronically excited states
  (3) Hindered rotations indicated by low frequency modes are not
      treated as such but are treated as vibrations and this may
      cause some error
  (4) All equations used are the standard statistical mechanics
      equations for an ideal gas
  (5) All vibrations are strictly harmonic

freq.      33.61  E(vib)   ...       0.55
freq.      40.77  E(vib)   ...       0.54
freq.      46.59  E(vib)   ...       0.53
freq.      65.19  E(vib)   ...       0.50
freq.      87.51  E(vib)   ...       0.48
freq.     108.27  E(vib)   ...       0.45
freq.     112.89  E(vib)   ...       0.45
freq.     138.90  E(vib)   ...       0.42
freq.     181.89  E(vib)   ...       0.37
freq.     198.59  E(vib)   ...       0.35
freq.     209.78  E(vib)   ...       0.34
freq.     230.22  E(vib)   ...       0.32
freq.     258.16  E(vib)   ...       0.30
freq.     278.89  E(vib)   ...       0.28
freq.     353.17  E(vib)   ...       0.22
freq.     364.41  E(vib)   ...       0.22
freq.     367.53  E(vib)   ...       0.21
freq.     403.83  E(vib)   ...       0.19
freq.     449.31  E(vib)   ...       0.17
freq.     457.78  E(vib)   ...       0.16
freq.     463.12  E(vib)   ...       0.16
freq.     493.00  E(vib)   ...       0.14
freq.     508.15  E(vib)   ...       0.14
freq.     524.52  E(vib)   ...       0.13
freq.     537.79  E(vib)   ...       0.12
freq.     580.09  E(vib)   ...       0.11
freq.     597.78  E(vib)   ...       0.10
freq.     630.95  E(vib)   ...       0.09
freq.     667.26  E(vib)   ...       0.08
freq.     670.03  E(vib)   ...       0.08
freq.     688.51  E(vib)   ...       0.07
freq.     702.61  E(vib)   ...       0.07
freq.     712.13  E(vib)   ...       0.07
freq.     746.08  E(vib)   ...       0.06
freq.     780.29  E(vib)   ...       0.05
freq.     810.42  E(vib)   ...       0.05
freq.     817.67  E(vib)   ...       0.05
freq.     828.58  E(vib)   ...       0.04
freq.     837.92  E(vib)   ...       0.04
freq.     848.68  E(vib)   ...       0.04
freq.     896.19  E(vib)   ...       0.03
freq.     918.45  E(vib)   ...       0.03
freq.     928.93  E(vib)   ...       0.03
freq.     944.67  E(vib)   ...       0.03
freq.     973.94  E(vib)   ...       0.03
freq.     999.16  E(vib)   ...       0.02
freq.    1018.02  E(vib)   ...       0.02
freq.    1068.55  E(vib)   ...       0.02
freq.    1084.96  E(vib)   ...       0.02
freq.    1090.14  E(vib)   ...       0.02
freq.    1095.58  E(vib)   ...       0.02
freq.    1114.32  E(vib)   ...       0.01
freq.    1130.20  E(vib)   ...       0.01
freq.    1132.93  E(vib)   ...       0.01
freq.    1170.54  E(vib)   ...       0.01
freq.    1178.61  E(vib)   ...       0.01
freq.    1202.55  E(vib)   ...       0.01
freq.    1208.04  E(vib)   ...       0.01
freq.    1255.38  E(vib)   ...       0.01
freq.    1258.79  E(vib)   ...       0.01
freq.    1283.18  E(vib)   ...       0.01
freq.    1288.13  E(vib)   ...       0.01
freq.    1334.37  E(vib)   ...       0.01
freq.    1367.02  E(vib)   ...       0.01
freq.    1382.11  E(vib)   ...       0.01
freq.    1409.64  E(vib)   ...       0.00
freq.    1417.78  E(vib)   ...       0.00
freq.    1425.23  E(vib)   ...       0.00
freq.    1451.40  E(vib)   ...       0.00
freq.    1456.34  E(vib)   ...       0.00
freq.    1461.19  E(vib)   ...       0.00
freq.    1471.41  E(vib)   ...       0.00
freq.    1490.30  E(vib)   ...       0.00
freq.    1500.36  E(vib)   ...       0.00
freq.    1502.80  E(vib)   ...       0.00
freq.    1503.49  E(vib)   ...       0.00
freq.    1517.44  E(vib)   ...       0.00
freq.    1531.88  E(vib)   ...       0.00
freq.    1548.02  E(vib)   ...       0.00
freq.    1554.06  E(vib)   ...       0.00
freq.    1573.04  E(vib)   ...       0.00
freq.    1765.04  E(vib)   ...       0.00
freq.    3024.60  E(vib)   ...       0.00
freq.    3029.49  E(vib)   ...       0.00
freq.    3094.52  E(vib)   ...       0.00
freq.    3096.47  E(vib)   ...       0.00
freq.    3151.67  E(vib)   ...       0.00
freq.    3168.75  E(vib)   ...       0.00
freq.    3179.15  E(vib)   ...       0.00
freq.    3183.62  E(vib)   ...       0.00
freq.    3186.90  E(vib)   ...       0.00
freq.    3187.98  E(vib)   ...       0.00
freq.    3195.52  E(vib)   ...       0.00
freq.    3198.02  E(vib)   ...       0.00
freq.    3200.62  E(vib)   ...       0.00
freq.    3219.27  E(vib)   ...       0.00

------------
INNER ENERGY
------------

The inner energy is: U= E(el) + E(ZPE) + E(vib) + E(rot) + E(trans)
    E(el)   - is the total energy from the electronic structure calculation
              = E(kin-el) + E(nuc-el) + E(el-el) + E(nuc-nuc)
    E(ZPE)  - the the zero temperature vibrational energy from the frequency calculation
    E(vib)  - the the finite temperature correction to E(ZPE) due to population
              of excited vibrational states
    E(rot)  - is the rotational thermal energy
    E(trans)- is the translational thermal energy

Summary of contributions to the inner energy U:
Electronic energy                ...   -878.19248998 Eh
Zero point energy                ...      0.26393409 Eh     165.62 kcal/mol
Thermal vibrational correction   ...      0.01464860 Eh       9.19 kcal/mol
Thermal rotational correction    ...      0.00141627 Eh       0.89 kcal/mol
Thermal translational correction ...      0.00141627 Eh       0.89 kcal/mol
-----------------------------------------------------------------------
Total thermal energy                   -877.91107475 Eh

Summary of corrections to the electronic energy:
(perhaps to be used in another calculation)
Total thermal correction                  0.01748114 Eh      10.97 kcal/mol
Non-thermal (ZPE) correction              0.26393409 Eh     165.62 kcal/mol
-----------------------------------------------------------------------
Total correction                          0.28141523 Eh     176.59 kcal/mol

--------
ENTHALPY
--------

The enthalpy is H = U + kB*T
                kB is Boltzmann's constant
Total thermal energy              ...   -877.91107475 Eh
Thermal Enthalpy correction       ...      0.00094421 Eh       0.59 kcal/mol
-----------------------------------------------------------------------
Total Enthalpy                    ...   -877.91013054 Eh

Note: Only C1 symmetry has been detected, increase convergence thresholds
      if your molecule has a higher symmetry. Symmetry factor of 1.0 is

Rotational constants in cm-1:     0.015926     0.011674     0.007445

                             ****ORCA TERMINATED NORMALLY****
TOTAL RUN TIME: 0 days 22 hours 9 minutes 45 seconds 133 msec
