                         Program Version 5.0.1 -  RELEASE  -
|  1> ## avogadro generated ORCA input file
|  2> # Basic Mode
|  3> #
|  4> ! B3LYP/G OPT Freq Def2-TZVP(-f) Def2-TZVP/C Def2/J RIJCOSX TightSCF CPCM(Water) AllPop SOSCF
|  5> %maxcore 3000
|  6>
|  7> %scf
|  8>        MaxIter 125
|  9>        CNVDIIS 1
| 10>        CNVSOSCF 1
| 11> end
| 12>
| 13> %geom
| 14>    MaxIter 999
| 15> end
| 16>
| 17> * xyz 1 1
| 18>    C       -2.88959       -1.04091        1.72226
| 19>    C       -2.16484       -2.23075        1.86439
| 20>    C       -0.89291       -2.32473        1.34897
| 21>    C       -2.30245        0.06749        1.16090
| 22>    C       -0.94908        0.05249        0.74974
| 23>    O       -3.11253        1.18142        0.96824
| 24>    C       -0.28618       -1.21214        0.73894
| 25>    C        0.93292       -1.37264        0.00710
| 26>    C        1.42029       -0.36819       -0.75681
| 27>    C       -0.23295        1.17308        0.21012
| 28>    C        0.84214        0.93687       -0.68203
| 29>    N       -0.52593        2.49379        0.52205
| 30>    C       -0.05974        3.49483       -0.26113
| 31>    C        0.79695        3.26568       -1.31669
| 32>    C        1.32310        1.99765       -1.46127
| 33>    C       -3.67861        1.30890       -0.29737
| 34>    O       -3.10975        0.90640       -1.29696
| 35>    N       -4.85429        1.95521       -0.26298
| 36>    C       -5.51185        2.27438       -1.52689
| 37>    C       -5.66074        2.16381        0.93689
| 38>    H       -5.12558        1.83645        1.81944
| 39>    H       -6.59115        1.59745        0.85067
| 40>    H       -5.90820        3.22189        1.03471
| 41>    H       -6.26333        1.52004       -1.77468
| 42>    H       -4.77667        2.32201       -2.32367
| 43>    H       -6.00500        3.24133       -1.42911
| 44>    H       -0.35745       -3.26505        1.36669
| 45>    H       -3.92687       -0.98510        2.02392
| 46>    H       -2.63334       -3.08957        2.32665
| 47>    H        1.40625       -2.34597        0.01055
| 48>    H        2.27254       -0.51273       -1.40760
| 49>    H       -0.34522        4.49514        0.02782
| 50>    H        1.11586        4.09322       -1.93253
| 51>    H        2.11236        1.80625       -2.17754
| 52>    P       -0.83197        3.03362        2.23652
| 53>    O       -1.34887        1.94754        3.06478
| 54>    O       -1.63562        4.35240        2.04149
| 55>    O        0.57257        3.62730        2.60091
| 56>    C       -3.10898        4.44482        2.03067
| 57>    C        1.65292        2.79926        3.17177
| 58>    C       -3.48565        5.82785        2.49668
| 59>    H       -3.49963        3.67068        2.68642
| 60>    H       -3.42558        4.25782        1.00707
| 61>    H       -3.14777        6.00289        3.51834
| 62>    H       -4.57313        5.91967        2.47121
| 63>    H       -3.06135        6.59065        1.84312
| 64>    C        2.73595        3.73202        3.65170
| 65>    H        2.00988        2.13398        2.38652
| 66>    H        1.22908        2.21220        3.98400
| 67>    H        3.13500        4.32580        2.82885
| 68>    H        3.54819        3.13730        4.07360
| 69>    H        2.36049        4.40126        4.42641
| 70>
| 71>
| 72> *
| 73>
| 74>
| 75>                          ****END OF INPUT****
 Total Charge           Charge          ....    1
 Multiplicity           Mult            ....    1
 Number of Electrons    NEL             ....  212
FINAL SINGLE POINT ENERGY     -1604.008222263587
                    ***********************HURRAY********************

CARTESIAN COORDINATES (ANGSTROEM)
---------------------------------
  C     -2.889210   -1.041194    1.722488
  C     -2.164096   -2.230822    1.864678
  C     -0.892175   -2.324484    1.349212
  C     -2.302374    0.067299    1.161020
  C     -0.948993    0.052658    0.749865
  O     -3.112777    1.180974    0.968211
  C     -0.285750   -1.211767    0.739102
  C      0.933357   -1.371949    0.007213
  C      1.420475   -0.367390   -0.756696
  C     -0.233140    1.173449    0.210249
  C      0.842019    0.937543   -0.681909
  N     -0.526480    2.494072    0.522212
  C     -0.060579    3.495213   -0.260977
  C      0.796166    3.266335   -1.316553
  C      1.322696    1.998478   -1.461109
  C     -3.678660    1.308411   -0.297456
  O     -3.109622    0.906037   -1.296975
  N     -4.854417    1.954627   -0.263170
  C     -5.511985    2.273580   -1.527132
  C     -5.661044    2.162949    0.936636
  H     -5.125929    1.835539    1.819207
  H     -6.591359    1.596466    0.850243
  H     -5.908645    3.220989    1.034559
  H     -6.263498    1.519237   -1.774777
  H     -4.776793    2.320999   -2.323915
  H     -6.005068    3.240585   -1.429517
  H     -0.356467   -3.264667    1.366948
  H     -3.926510   -0.985674    2.024153
  H     -2.632362   -3.089741    2.327006
  H      1.406921   -2.345167    0.010605
  H      2.272720   -0.511781   -1.407535
  H     -0.346306    4.495457    0.027970
  H      1.114853    4.093990   -1.932353
  H      2.112058    1.807298   -2.177326
  P     -0.832444    3.033844    2.236636
  O     -1.349911    1.947919    3.064713
  O     -1.635421    4.353013    2.041668
  O      0.572384    3.626722    2.601154
  C     -3.108696    4.446222    2.030555
  C      1.652110    2.798121    3.172249
  C     -3.484754    5.829465    2.496458
  H     -3.499942    3.672333    2.686235
  H     -3.425194    4.259365    1.006894
  H     -3.147040    6.004320    3.518208
  H     -4.572168    5.921883    2.470677
  H     -3.059835    6.592019    1.843003
  C      2.736197    3.730156    3.651188
  H      2.008230    2.131875    2.387425
  H      1.227982    2.212022    3.985031
  H      3.135586    4.322951    2.827787
  H      3.547967    3.134935    4.073290
  H      2.361611    4.400345    4.425501

 Multiplicity           Mult            ....    1
 Number of Electrons    NEL             ....  212
 Basis Dimension        Dim             ....  822

ORBITAL ENERGIES
----------------

  NO   OCC          E(Eh)            E(eV)
   0   2.0000     -77.221057     -2101.2918
   1   2.0000     -19.189722      -522.1789
   2   2.0000     -19.186520      -522.0918
   3   2.0000     -19.185161      -522.0548
   4   2.0000     -19.124918      -520.4155
   5   2.0000     -19.113496      -520.1047
   6   2.0000     -14.430090      -392.6627
   7   2.0000     -14.364379      -390.8746
   8   2.0000     -10.332493      -281.1614
   9   2.0000     -10.278448      -279.6908
  10   2.0000     -10.267950      -279.4051
  11   2.0000     -10.263347      -279.2799
  12   2.0000     -10.247100      -278.8378
  13   2.0000     -10.245487      -278.7939
  14   2.0000     -10.233360      -278.4639
  15   2.0000     -10.230050      -278.3738
  16   2.0000     -10.223056      -278.1835
  17   2.0000     -10.216977      -278.0181
  18   2.0000     -10.216867      -278.0151
  19   2.0000     -10.203208      -277.6434
  20   2.0000     -10.202124      -277.6139
  21   2.0000     -10.201619      -277.6002
  22   2.0000     -10.201325      -277.5922
  23   2.0000     -10.197717      -277.4940
  24   2.0000     -10.193603      -277.3820
  25   2.0000     -10.192869      -277.3621
  26   2.0000     -10.170426      -276.7514
  27   2.0000     -10.170088      -276.7422
  28   2.0000      -6.688591      -182.0058
  29   2.0000      -4.851487      -132.0157
  30   2.0000      -4.850329      -131.9842
  31   2.0000      -4.849471      -131.9608
  32   2.0000      -1.126191       -30.6452
  33   2.0000      -1.119823       -30.4719
  34   2.0000      -1.064032       -28.9538
  35   2.0000      -1.037433       -28.2300
  36   2.0000      -1.028076       -27.9754
  37   2.0000      -1.006656       -27.3925
  38   2.0000      -0.957430       -26.0530
  39   2.0000      -0.907705       -24.6999
  40   2.0000      -0.871334       -23.7102
  41   2.0000      -0.843432       -22.9509
  42   2.0000      -0.812215       -22.1015
  43   2.0000      -0.795877       -21.6569
  44   2.0000      -0.777991       -21.1702
  45   2.0000      -0.773994       -21.0615
  46   2.0000      -0.765370       -20.8268
  47   2.0000      -0.728943       -19.8356
  48   2.0000      -0.720491       -19.6056
  49   2.0000      -0.697829       -18.9889
  50   2.0000      -0.688197       -18.7268
  51   2.0000      -0.673411       -18.3245
  52   2.0000      -0.657563       -17.8932
  53   2.0000      -0.642284       -17.4774
  54   2.0000      -0.635141       -17.2831
  55   2.0000      -0.612296       -16.6614
  56   2.0000      -0.598591       -16.2885
  57   2.0000      -0.576243       -15.6804
  58   2.0000      -0.561420       -15.2770
  59   2.0000      -0.550821       -14.9886
  60   2.0000      -0.550332       -14.9753
  61   2.0000      -0.542351       -14.7581
  62   2.0000      -0.539724       -14.6866
  63   2.0000      -0.514845       -14.0096
  64   2.0000      -0.510304       -13.8861
  65   2.0000      -0.507572       -13.8117
  66   2.0000      -0.501032       -13.6338
  67   2.0000      -0.497088       -13.5265
  68   2.0000      -0.493953       -13.4411
  69   2.0000      -0.488105       -13.2820
  70   2.0000      -0.474538       -12.9128
  71   2.0000      -0.467754       -12.7282
  72   2.0000      -0.461762       -12.5652
  73   2.0000      -0.457319       -12.4443
  74   2.0000      -0.456261       -12.4155
  75   2.0000      -0.448125       -12.1941
  76   2.0000      -0.441582       -12.0161
  77   2.0000      -0.440036       -11.9740
  78   2.0000      -0.430958       -11.7270
  79   2.0000      -0.419076       -11.4036
  80   2.0000      -0.414958       -11.2916
  81   2.0000      -0.412878       -11.2350
  82   2.0000      -0.408681       -11.1208
  83   2.0000      -0.406398       -11.0586
  84   2.0000      -0.403084       -10.9685
  85   2.0000      -0.400494       -10.8980
  86   2.0000      -0.400063       -10.8863
  87   2.0000      -0.393321       -10.7028
  88   2.0000      -0.392134       -10.6705
  89   2.0000      -0.387823       -10.5532
  90   2.0000      -0.381829       -10.3901
  91   2.0000      -0.377291       -10.2666
  92   2.0000      -0.374507       -10.1908
  93   2.0000      -0.369981       -10.0677
  94   2.0000      -0.361242        -9.8299
  95   2.0000      -0.352131        -9.5820
  96   2.0000      -0.344116        -9.3639
  97   2.0000      -0.340300        -9.2600
  98   2.0000      -0.336126        -9.1464
  99   2.0000      -0.330242        -8.9863
 100   2.0000      -0.326384        -8.8814
 101   2.0000      -0.303234        -8.2514
 102   2.0000      -0.300685        -8.1821
 103   2.0000      -0.271695        -7.3932
 104   2.0000      -0.262749        -7.1498
 105   2.0000      -0.246762        -6.7147
 106   0.0000      -0.118306        -3.2193
 107   0.0000      -0.082054        -2.2328
 108   0.0000      -0.041742        -1.1359
 109   0.0000      -0.018455        -0.5022
 110   0.0000       0.014897         0.4054

MULLIKEN ATOMIC CHARGES
-----------------------
   0 C :   -0.182655
   1 C :   -0.086135
   2 C :   -0.192696
   3 C :    0.329400
   4 C :    0.139157
   5 O :   -0.531017
   6 C :    0.163161
   7 C :   -0.175542
   8 C :   -0.255453
   9 C :    0.055241
  10 C :    0.382733
  11 N :   -0.284011
  12 C :    0.082820
  13 C :   -0.028258
  14 C :   -0.168490
  15 C :    0.726725
  16 O :   -0.616181
  17 N :   -0.225888
  18 C :   -0.252050
  19 C :   -0.290896
  20 H :    0.162978
  21 H :    0.149344
  22 H :    0.153886
  23 H :    0.141165
  24 H :    0.146496
  25 H :    0.142667
  26 H :    0.123113
  27 H :    0.135318
  28 H :    0.123287
  29 H :    0.125124
  30 H :    0.126499
  31 H :    0.178123
  32 H :    0.147927
  33 H :    0.153726
  34 P :    1.609560
  35 O :   -0.783518
  36 O :   -0.523971
  37 O :   -0.520130
  38 C :   -0.024324
  39 C :   -0.024803
  40 C :   -0.342570
  41 H :    0.138035
  42 H :    0.140014
  43 H :    0.131503
  44 H :    0.140336
  45 H :    0.131686
  46 C :   -0.351595
  47 H :    0.143505
  48 H :    0.139748
  49 H :    0.130348
  50 H :    0.136884
  51 H :    0.129675
Sum of atomic charges:    1.0000000

LOEWDIN ATOMIC CHARGES
----------------------
   0 C :   -0.081452
   1 C :   -0.094916
   2 C :   -0.080176
   3 C :   -0.123538
   4 C :   -0.031408
   5 O :    0.166836
   6 C :   -0.063692
   7 C :   -0.060033
   8 C :   -0.071719
   9 C :   -0.027349
  10 C :   -0.069335
  11 N :    0.086438
  12 C :   -0.060688
  13 C :   -0.091095
  14 C :    0.007997
  15 C :   -0.344678
  16 O :   -0.074514
  17 N :    0.084463
  18 C :   -0.211975
  19 C :   -0.220040
  20 H :    0.119210
  21 H :    0.116078
  22 H :    0.115096
  23 H :    0.113992
  24 H :    0.119167
  25 H :    0.117882
  26 H :    0.150889
  27 H :    0.153066
  28 H :    0.148505
  29 H :    0.154474
  30 H :    0.155394
  31 H :    0.160059
  32 H :    0.161252
  33 H :    0.165246
  34 P :    0.774320
  35 O :   -0.401418
  36 O :   -0.096277
  37 O :   -0.105770
  38 C :   -0.218415
  39 C :   -0.218992
  40 C :   -0.270827
  41 H :    0.123723
  42 H :    0.125428
  43 H :    0.117770
  44 H :    0.127563
  45 H :    0.117942
  46 C :   -0.273422
  47 H :    0.124636
  48 H :    0.122800
  49 H :    0.117220
  50 H :    0.127010
  51 H :    0.117272

  Mayer bond orders larger than 0.100000
B(  0-C ,  1-C ) :   1.2702 B(  0-C ,  3-C ) :   1.5106 B(  0-C , 27-H ) :   0.9829
B(  1-C ,  2-C ) :   1.4056 B(  1-C , 28-H ) :   0.9902 B(  2-C ,  6-C ) :   1.2665
B(  2-C , 26-H ) :   0.9911 B(  3-C ,  4-C ) :   1.2474 B(  3-C ,  5-O ) :   0.7317
B(  4-C ,  6-C ) :   1.3284 B(  4-C ,  9-C ) :   1.0912 B(  5-O , 15-C ) :   0.9801
B(  6-C ,  7-C ) :   1.1535 B(  7-C ,  8-C ) :   1.5300 B(  7-C , 29-H ) :   0.9933
B(  8-C , 10-C ) :   1.1078 B(  8-C , 30-H ) :   0.9967 B(  9-C , 10-C ) :   1.2869
B(  9-C , 11-N ) :   1.1074 B( 10-C , 14-C ) :   1.2940 B( 11-N , 12-C ) :   1.3248
B( 11-N , 34-P ) :   0.6961 B( 12-C , 13-C ) :   1.4028 B( 12-C , 31-H ) :   0.9402
B( 13-C , 14-C ) :   1.3833 B( 13-C , 32-H ) :   0.9666 B( 14-C , 33-H ) :   0.9615
B( 15-C , 16-O ) :   1.7972 B( 15-C , 17-N ) :   1.3425 B( 17-N , 18-C ) :   0.9365
B( 17-N , 19-C ) :   0.9315 B( 18-C , 23-H ) :   0.9635 B( 18-C , 24-H ) :   0.9629
B( 18-C , 25-H ) :   0.9590 B( 19-C , 20-H ) :   0.9601 B( 19-C , 21-H ) :   0.9526
B( 19-C , 22-H ) :   0.9628 B( 34-P , 35-O ) :   1.7121 B( 34-P , 36-O ) :   1.1045
B( 34-P , 37-O ) :   1.0981 B( 36-O , 38-C ) :   0.8313 B( 37-O , 39-C ) :   0.8384
B( 38-C , 40-C ) :   1.0066 B( 38-C , 41-H ) :   0.9564 B( 38-C , 42-H ) :   0.9527
B( 39-C , 46-C ) :   1.0213 B( 39-C , 47-H ) :   0.9508 B( 39-C , 48-H ) :   0.9581
B( 40-C , 43-H ) :   0.9728 B( 40-C , 44-H ) :   0.9624 B( 40-C , 45-H ) :   0.9734
B( 46-C , 49-H ) :   0.9719 B( 46-C , 50-H ) :   0.9613 B( 46-C , 51-H ) :   0.9723

FINAL SINGLE POINT ENERGY     -1604.008222595150

DIPOLE MOMENT
-------------
                                X             Y             Z
Electronic contribution:      9.52217     -11.30475      -4.27032
Nuclear contribution   :     -8.38173      12.60181       3.35501
                        -----------------------------------------
Total Dipole Moment    :      1.14044       1.29706      -0.91531
                        -----------------------------------------
Magnitude (a.u.)       :      1.95468
Magnitude (Debye)      :      4.96840

VIBRATIONAL FREQUENCIES
-----------------------

Scaling factor for frequencies =  1.000000000  (already applied!)

   0:         0.00 cm**-1
   1:         0.00 cm**-1
   2:         0.00 cm**-1
   3:         0.00 cm**-1
   4:         0.00 cm**-1
   5:         0.00 cm**-1
   6:        14.98 cm**-1
   7:        24.90 cm**-1
   8:        27.11 cm**-1
   9:        32.02 cm**-1
  10:        49.41 cm**-1
  11:        55.13 cm**-1
  12:        57.68 cm**-1
  13:        63.74 cm**-1
  14:        76.16 cm**-1
  15:        83.49 cm**-1
  16:        89.32 cm**-1
  17:       103.73 cm**-1
  18:       120.30 cm**-1
  19:       122.11 cm**-1
  20:       146.03 cm**-1
  21:       150.48 cm**-1
  22:       165.47 cm**-1
  23:       179.96 cm**-1
  24:       193.61 cm**-1
  25:       210.86 cm**-1
  26:       230.85 cm**-1
  27:       239.77 cm**-1
  28:       244.72 cm**-1
  29:       256.55 cm**-1
  30:       261.85 cm**-1
  31:       298.90 cm**-1
  32:       320.05 cm**-1
  33:       321.30 cm**-1
  34:       332.72 cm**-1
  35:       350.87 cm**-1
  36:       367.35 cm**-1
  37:       400.30 cm**-1
  38:       407.99 cm**-1
  39:       429.72 cm**-1
  40:       450.83 cm**-1
  41:       465.74 cm**-1
  42:       488.28 cm**-1
  43:       495.14 cm**-1
  44:       507.35 cm**-1
  45:       519.99 cm**-1
  46:       533.88 cm**-1
  47:       556.02 cm**-1
  48:       565.15 cm**-1
  49:       588.46 cm**-1
  50:       610.69 cm**-1
  51:       632.62 cm**-1
  52:       656.46 cm**-1
  53:       715.28 cm**-1
  54:       731.00 cm**-1
  55:       741.62 cm**-1
  56:       762.11 cm**-1
  57:       767.27 cm**-1
  58:       773.67 cm**-1
  59:       780.72 cm**-1
  60:       795.09 cm**-1
  61:       818.91 cm**-1
  62:       820.55 cm**-1
  63:       824.29 cm**-1
  64:       827.04 cm**-1
  65:       857.38 cm**-1
  66:       871.51 cm**-1
  67:       902.95 cm**-1
  68:       928.44 cm**-1
  69:       974.29 cm**-1
  70:       980.42 cm**-1
  71:       985.65 cm**-1
  72:       989.05 cm**-1
  73:       989.50 cm**-1
  74:       995.38 cm**-1
  75:      1004.87 cm**-1
  76:      1018.54 cm**-1
  77:      1030.39 cm**-1
  78:      1036.24 cm**-1
  79:      1053.05 cm**-1
  80:      1073.69 cm**-1
  81:      1104.51 cm**-1
  82:      1116.93 cm**-1
  83:      1118.63 cm**-1
  84:      1126.23 cm**-1
  85:      1127.50 cm**-1
  86:      1142.94 cm**-1
  87:      1152.33 cm**-1
  88:      1171.22 cm**-1
  89:      1171.68 cm**-1
  90:      1178.14 cm**-1
  91:      1180.03 cm**-1
  92:      1187.68 cm**-1
  93:      1212.08 cm**-1
  94:      1235.13 cm**-1
  95:      1252.72 cm**-1
  96:      1270.22 cm**-1
  97:      1278.04 cm**-1
  98:      1297.78 cm**-1
  99:      1310.58 cm**-1
 100:      1311.80 cm**-1
 101:      1318.57 cm**-1
 102:      1346.78 cm**-1
 103:      1354.05 cm**-1
 104:      1403.07 cm**-1
 105:      1405.39 cm**-1
 106:      1410.19 cm**-1
 107:      1417.82 cm**-1
 108:      1419.22 cm**-1
 109:      1422.86 cm**-1
 110:      1441.58 cm**-1
 111:      1450.82 cm**-1
 112:      1454.69 cm**-1
 113:      1463.16 cm**-1
 114:      1469.42 cm**-1
 115:      1469.55 cm**-1
 116:      1476.65 cm**-1
 117:      1478.24 cm**-1
 118:      1482.31 cm**-1
 119:      1483.54 cm**-1
 120:      1487.10 cm**-1
 121:      1494.68 cm**-1
 122:      1507.90 cm**-1
 123:      1514.74 cm**-1
 124:      1521.84 cm**-1
 125:      1525.45 cm**-1
 126:      1552.58 cm**-1
 127:      1596.83 cm**-1
 128:      1613.12 cm**-1
 129:      1639.92 cm**-1
 130:      1654.38 cm**-1
 131:      1719.40 cm**-1
 132:      3031.77 cm**-1
 133:      3036.29 cm**-1
 134:      3042.90 cm**-1
 135:      3043.10 cm**-1
 136:      3074.98 cm**-1
 137:      3086.25 cm**-1
 138:      3089.16 cm**-1
 139:      3098.15 cm**-1
 140:      3109.65 cm**-1
 141:      3111.17 cm**-1
 142:      3111.21 cm**-1
 143:      3113.66 cm**-1
 144:      3138.18 cm**-1
 145:      3152.73 cm**-1
 146:      3162.92 cm**-1
 147:      3189.06 cm**-1
 148:      3189.84 cm**-1
 149:      3192.85 cm**-1
 150:      3199.85 cm**-1
 151:      3202.00 cm**-1
 152:      3206.80 cm**-1
 153:      3209.38 cm**-1
 154:      3228.76 cm**-1
 155:      3240.22 cm**-1

IR SPECTRUM
-----------

 Mode   freq       eps      Int      T**2         TX        TY        TZ
       cm**-1   L/(mol*cm) km/mol    a.u.
----------------------------------------------------------------------------
  6:     14.98   0.000158    0.80  0.003284  ( 0.036000  0.044589 -0.000412)
  7:     24.90   0.000322    1.63  0.004040  (-0.012322  0.060680 -0.014357)
  8:     27.11   0.000123    0.62  0.001410  (-0.022314 -0.026919 -0.013706)
  9:     32.02   0.000659    3.33  0.006424  ( 0.042413  0.017503  0.065718)
 10:     49.41   0.000281    1.42  0.001774  ( 0.012164 -0.011964  0.038508)
 11:     55.13   0.000756    3.82  0.004277  ( 0.039257  0.040717 -0.032830)
 12:     57.68   0.001147    5.80  0.006206  (-0.043679 -0.063744 -0.015328)
 13:     63.74   0.000393    1.99  0.001926  ( 0.024384 -0.020023 -0.030508)
 14:     76.16   0.000516    2.61  0.002116  (-0.043449 -0.010777 -0.010600)
 15:     83.49   0.001562    7.90  0.005840  ( 0.007840 -0.003404  0.075942)
 16:     89.32   0.000157    0.79  0.000548  ( 0.011834 -0.006441 -0.019142)
 17:    103.73   0.001263    6.38  0.003799  (-0.042922 -0.039731 -0.019447)
 18:    120.30   0.000164    0.83  0.000426  (-0.019060  0.007924 -0.000468)
 19:    122.11   0.000091    0.46  0.000233  (-0.014129  0.002866  0.004996)
 20:    146.03   0.000862    4.36  0.001843  (-0.034534  0.025443  0.001622)
 21:    150.48   0.000970    4.90  0.002011  (-0.031658  0.026464 -0.017568)
 22:    165.47   0.001009    5.10  0.001902  ( 0.015418 -0.022290  0.034172)
 23:    179.96   0.003908   19.75  0.006776  ( 0.077744 -0.025443  0.009207)
 24:    193.61   0.000127    0.64  0.000205  (-0.011803 -0.006324 -0.005022)
 25:    210.86   0.000974    4.92  0.001442  (-0.015818 -0.033415 -0.008674)
 26:    230.85   0.000261    1.32  0.000353  (-0.004841 -0.018134 -0.000529)
 27:    239.77   0.001533    7.75  0.001995  ( 0.003708 -0.039457 -0.020592)
 28:    244.72   0.000992    5.01  0.001265  (-0.016544  0.025512 -0.018452)
 29:    256.55   0.000214    1.08  0.000260  ( 0.001149 -0.007301  0.014340)
 30:    261.85   0.001425    7.20  0.001699  ( 0.036487 -0.019022 -0.002359)
 31:    298.90   0.001668    8.43  0.001742  ( 0.021081  0.013760  0.033288)
 32:    320.05   0.001445    7.30  0.001409  (-0.021669 -0.013610 -0.027468)
 33:    321.30   0.001669    8.44  0.001621  ( 0.005685 -0.039764  0.002782)
 34:    332.72   0.002015   10.19  0.001890  ( 0.004739 -0.025483 -0.034907)
 35:    350.87   0.003277   16.56  0.002915  ( 0.050049 -0.019269  0.006216)
 36:    367.35   0.002807   14.19  0.002385  (-0.040457  0.000694 -0.027339)
 37:    400.30   0.000485    2.45  0.000378  (-0.010862  0.014897 -0.006202)
 38:    407.99   0.002221   11.22  0.001699  (-0.006298  0.040732  0.000007)
 39:    429.72   0.005333   26.95  0.003873  (-0.009351 -0.045414 -0.041507)
 40:    450.83   0.002231   11.28  0.001545  ( 0.008036 -0.014095 -0.035795)
 41:    465.74   0.013038   65.89  0.008736  (-0.003686  0.030552  0.088254)
 42:    488.28   0.012509   63.22  0.007995  ( 0.018683 -0.062366 -0.061287)
 43:    495.14   0.055361  279.77  0.034891  (-0.023084  0.098735  0.156875)
 44:    507.35   0.001572    7.94  0.000967  ( 0.026907 -0.012023 -0.009910)
 45:    519.99   0.004464   22.56  0.002679  ( 0.021122 -0.007077  0.046719)
 46:    533.88   0.008316   42.02  0.004861  (-0.064874 -0.001877 -0.025468)
 47:    556.02   0.000604    3.05  0.000339  (-0.003971 -0.006891  0.016606)
 48:    565.15   0.001064    5.38  0.000587  ( 0.004314  0.012142 -0.020528)
 49:    588.46   0.002057   10.40  0.001091  (-0.009723  0.010837  0.029645)
 50:    610.69   0.010629   53.71  0.005431  (-0.072756  0.008353  0.008261)
 51:    632.62   0.003724   18.82  0.001837  ( 0.007522  0.001116 -0.042182)
 52:    656.46   0.001101    5.56  0.000523  ( 0.021663 -0.004360 -0.005920)
 53:    715.28   0.006041   30.53  0.002635  (-0.051068 -0.005239 -0.000229)
 54:    731.00   0.027770  140.34  0.011855  (-0.072594 -0.063691 -0.050283)
 55:    741.62   0.006800   34.36  0.002861  ( 0.014207 -0.001998 -0.051531)
 56:    762.11   0.001680    8.49  0.000688  ( 0.010433  0.022357 -0.008906)
 57:    767.27   0.013344   67.43  0.005427  ( 0.028810  0.058038  0.035055)
 58:    773.67   0.020864  105.44  0.008416  ( 0.003977 -0.085536 -0.032914)
 59:    780.72   0.003268   16.52  0.001306  ( 0.002167 -0.012947 -0.033677)
 60:    795.09   0.001841    9.30  0.000723  (-0.016080  0.014730  0.015719)
 61:    818.91   0.000266    1.34  0.000101  ( 0.006322 -0.006284  0.004663)
 62:    820.55   0.004814   24.33  0.001831  ( 0.030719 -0.027857 -0.010535)
 63:    824.29   0.001217    6.15  0.000461  (-0.011953  0.005862 -0.016836)
 64:    827.04   0.002201   11.12  0.000830  (-0.027935 -0.001067 -0.006997)
 65:    857.38   0.008894   44.95  0.003237  (-0.031433 -0.008232 -0.046706)
 66:    871.51   0.025335  128.04  0.009072  ( 0.061738  0.012358  0.071468)
 67:    902.95   0.011824   59.75  0.004086  (-0.010501 -0.044514 -0.044662)
 68:    928.44   0.000774    3.91  0.000260  (-0.004122 -0.003704 -0.015147)
 69:    974.29   0.033787  170.75  0.010822  (-0.085653 -0.018139 -0.056183)
 70:    980.42   0.001325    6.69  0.000422  ( 0.001134 -0.001491  0.020448)
 71:    985.65   0.012781   64.59  0.004047  ( 0.031400  0.003034  0.055239)
 72:    989.05   0.012753   64.45  0.004024  ( 0.048997 -0.004693  0.040011)
 73:    989.50   0.113275  572.45  0.035724  ( 0.172322 -0.074699  0.021197)
 74:    995.38   0.001166    5.89  0.000365  ( 0.013443  0.002509  0.013358)
 75:   1004.87   0.118599  599.35  0.036831  (-0.179398  0.050786 -0.045477)
 76:   1018.54   0.000850    4.30  0.000261  (-0.014174  0.003836 -0.006700)
 77:   1030.39   0.014946   75.53  0.004527  (-0.037280  0.053720  0.015843)
 78:   1036.24   0.050709  256.26  0.015271  (-0.100021  0.071934 -0.009603)
 79:   1053.05   0.034362  173.65  0.010183  ( 0.039841 -0.061770 -0.069138)
 80:   1073.69   0.006166   31.16  0.001792  ( 0.018992 -0.009410  0.036644)
 81:   1104.51   0.000880    4.45  0.000249  ( 0.001215  0.015250 -0.003821)
 82:   1116.93   0.000953    4.81  0.000266  (-0.001577  0.015324  0.005370)
 83:   1118.63   0.003725   18.83  0.001039  ( 0.013641  0.028000  0.008319)
 84:   1126.23   0.007010   35.42  0.001942  (-0.035720  0.012933 -0.022340)
 85:   1127.50   0.001459    7.37  0.000404  (-0.014643 -0.010277 -0.009150)
 86:   1142.94   0.127644  645.06  0.034852  ( 0.150839 -0.075607  0.079891)
 87:   1152.33   0.038487  194.50  0.010423  ( 0.092693 -0.041438 -0.010659)
 88:   1171.22   0.001052    5.31  0.000280  (-0.010708  0.012807  0.001235)
 89:   1171.68   0.001939    9.80  0.000517  (-0.017422  0.002604  0.014361)
 90:   1178.14   0.004271   21.58  0.001131  ( 0.003264 -0.030862  0.012967)
 91:   1180.03   0.004162   21.03  0.001101  (-0.021224  0.020488 -0.015178)
 92:   1187.68   0.001045    5.28  0.000275  ( 0.005855  0.000819  0.015478)
 93:   1212.08   0.009038   45.67  0.002327  (-0.013724  0.020398 -0.041502)
 94:   1235.13   0.000709    3.58  0.000179  ( 0.010964 -0.006059 -0.004708)
 95:   1252.72   0.027087  136.88  0.006748  (-0.065965  0.035553 -0.033648)
 96:   1270.22   0.002194   11.09  0.000539  (-0.001941 -0.012847  0.019240)
 97:   1278.04   0.007216   36.46  0.001762  ( 0.020915 -0.034261 -0.012272)
 98:   1297.78   0.003877   19.59  0.000932  ( 0.006872 -0.027468 -0.011425)
 99:   1310.58   0.045578  230.33  0.010853  ( 0.037136  0.085715 -0.046114)
100:   1311.80   0.004225   21.35  0.001005  ( 0.000648  0.026406 -0.017531)
101:   1318.57   0.015215   76.89  0.003601  ( 0.017705  0.052638 -0.022733)
102:   1346.78   0.004357   22.02  0.001010  ( 0.025750 -0.018403 -0.002800)
103:   1354.05   0.005045   25.50  0.001163  (-0.031337 -0.006567  0.011734)
104:   1403.07   0.000146    0.74  0.000032  (-0.000782  0.005013  0.002578)
105:   1405.39   0.001192    6.02  0.000265  ( 0.012894  0.009399  0.003181)
106:   1410.19   0.069049  348.94  0.015280  ( 0.065706 -0.089146  0.054915)
107:   1417.82   0.001408    7.11  0.000310  (-0.008335  0.013789  0.007090)
108:   1419.22   0.037607  190.05  0.008269  (-0.062990 -0.063962  0.014503)
109:   1422.86   0.003200   16.17  0.000702  ( 0.009129 -0.006999  0.023865)
110:   1441.58   0.001816    9.18  0.000393  (-0.015595 -0.000585  0.012234)
111:   1450.82   0.007121   35.99  0.001532  (-0.000091 -0.034421  0.018628)
112:   1454.69   0.010695   54.05  0.002294  ( 0.000858 -0.042787  0.021517)
113:   1463.16   0.006304   31.86  0.001344  (-0.010029 -0.024135 -0.025717)
114:   1469.42   0.001940    9.80  0.000412  ( 0.009105 -0.001794 -0.018050)
115:   1469.55   0.002855   14.43  0.000606  (-0.003223 -0.006965  0.023395)
116:   1476.65   0.014948   75.54  0.003159  (-0.038036 -0.037745  0.016962)
117:   1478.24   0.003510   17.74  0.000741  (-0.021597 -0.007764  0.014635)
118:   1482.31   0.000594    3.00  0.000125  (-0.008794  0.006116 -0.003197)
119:   1483.54   0.001360    6.87  0.000286  ( 0.006115 -0.015568 -0.002496)
120:   1487.10   0.004708   23.79  0.000988  ( 0.013852  0.028198 -0.000931)
121:   1494.68   0.003878   19.60  0.000810  ( 0.003668 -0.017476 -0.022152)
122:   1507.90   0.001712    8.65  0.000354  (-0.002251 -0.018053 -0.004838)
123:   1514.74   0.004090   20.67  0.000843  ( 0.012240  0.015683  0.021139)
124:   1521.84   0.012112   61.21  0.002484  ( 0.036580  0.002227  0.033773)
125:   1525.45   0.006799   34.36  0.001391  (-0.008345  0.020027 -0.030332)
126:   1552.58   0.015102   76.32  0.003036  (-0.003209  0.054743  0.005328)
127:   1596.83   0.017008   85.95  0.003324  ( 0.017868 -0.052132 -0.016934)
128:   1613.12   0.009741   49.23  0.001884  (-0.027612 -0.021817  0.025418)
129:   1639.92   0.008668   43.81  0.001649  (-0.005378 -0.038091  0.013024)
130:   1654.38   0.020356  102.87  0.003840  ( 0.043954  0.017305 -0.040103)
131:   1719.40   0.192167  971.13  0.034877  ( 0.136681 -0.079965 -0.099001)
132:   3031.77   0.007075   35.75  0.000728  ( 0.011642  0.003523  0.024088)
133:   3036.29   0.016311   82.43  0.001676  (-0.040288  0.005022  0.005298)
134:   3042.90   0.002423   12.25  0.000249  ( 0.011612  0.009415  0.005003)
135:   3043.10   0.002869   14.50  0.000294  ( 0.003136 -0.016003 -0.005317)
136:   3074.98   0.003329   16.82  0.000338  (-0.005704  0.017468 -0.000406)
137:   3086.25   0.009538   48.20  0.000964  ( 0.010199  0.028296  0.007730)
138:   3089.16   0.001342    6.78  0.000136  ( 0.010059 -0.004356  0.003920)
139:   3098.15   0.004172   21.08  0.000420  (-0.000798  0.020478 -0.000462)
140:   3109.65   0.001345    6.80  0.000135  (-0.004346 -0.003409  0.010221)
141:   3111.17   0.004346   21.96  0.000436  (-0.019512 -0.006991  0.002525)
142:   3111.21   0.005232   26.44  0.000525  (-0.005376  0.022183 -0.001953)
143:   3113.66   0.003679   18.59  0.000369  ( 0.010157  0.001105  0.016259)
144:   3138.18   0.006542   33.06  0.000651  (-0.009008  0.000590  0.023854)
145:   3152.73   0.004078   20.61  0.000404  ( 0.001001  0.006604 -0.018948)
146:   3162.92   0.001235    6.24  0.000122  (-0.007432 -0.000623  0.008136)
147:   3189.06   0.000083    0.42  0.000008  ( 0.001124  0.000712 -0.002526)
148:   3189.84   0.000772    3.90  0.000076  (-0.004143  0.003129 -0.006968)
149:   3192.85   0.000326    1.65  0.000032  ( 0.005128  0.000974 -0.002152)
150:   3199.85   0.001586    8.02  0.000155  (-0.000990  0.011729 -0.004019)
151:   3202.00   0.000061    0.31  0.000006  (-0.001357  0.001987  0.000335)
152:   3206.80   0.000606    3.06  0.000059  ( 0.004440 -0.006183 -0.000992)
153:   3209.38   0.000552    2.79  0.000054  ( 0.002930  0.005871 -0.003262)
154:   3228.76   0.001243    6.28  0.000120  (-0.004736  0.007991  0.005815)
155:   3240.22   0.004402   22.25  0.000424  ( 0.001725 -0.020417 -0.002032)

--------------------------
THERMOCHEMISTRY AT 298.15K
--------------------------

Temperature         ... 298.15 K
Pressure            ... 1.00 atm
Total Mass          ... 403.39 AMU

Throughout the following assumptions are being made:
  (1) The electronic state is orbitally nondegenerate
  (2) There are no thermally accessible electronically excited states
  (3) Hindered rotations indicated by low frequency modes are not
      treated as such but are treated as vibrations and this may
      cause some error
  (4) All equations used are the standard statistical mechanics
      equations for an ideal gas
  (5) All vibrations are strictly harmonic

freq.      14.98  E(vib)   ...       0.57
freq.      24.90  E(vib)   ...       0.56
freq.      27.11  E(vib)   ...       0.55
freq.      32.02  E(vib)   ...       0.55
freq.      49.41  E(vib)   ...       0.52
freq.      55.13  E(vib)   ...       0.52
freq.      57.68  E(vib)   ...       0.51
freq.      63.74  E(vib)   ...       0.51
freq.      76.16  E(vib)   ...       0.49
freq.      83.49  E(vib)   ...       0.48
freq.      89.32  E(vib)   ...       0.47
freq.     103.73  E(vib)   ...       0.46
freq.     120.30  E(vib)   ...       0.44
freq.     122.11  E(vib)   ...       0.43
freq.     146.03  E(vib)   ...       0.41
freq.     150.48  E(vib)   ...       0.40
freq.     165.47  E(vib)   ...       0.39
freq.     179.96  E(vib)   ...       0.37
freq.     193.61  E(vib)   ...       0.36
freq.     210.86  E(vib)   ...       0.34
freq.     230.85  E(vib)   ...       0.32
freq.     239.77  E(vib)   ...       0.31
freq.     244.72  E(vib)   ...       0.31
freq.     256.55  E(vib)   ...       0.30
freq.     261.85  E(vib)   ...       0.29
freq.     298.90  E(vib)   ...       0.26
freq.     320.05  E(vib)   ...       0.25
freq.     321.30  E(vib)   ...       0.25
freq.     332.72  E(vib)   ...       0.24
freq.     350.87  E(vib)   ...       0.23
freq.     367.35  E(vib)   ...       0.21
freq.     400.30  E(vib)   ...       0.19
freq.     407.99  E(vib)   ...       0.19
freq.     429.72  E(vib)   ...       0.18
freq.     450.83  E(vib)   ...       0.17
freq.     465.74  E(vib)   ...       0.16
freq.     488.28  E(vib)   ...       0.15
freq.     495.14  E(vib)   ...       0.14
freq.     507.35  E(vib)   ...       0.14
freq.     519.99  E(vib)   ...       0.13
freq.     533.88  E(vib)   ...       0.13
freq.     556.02  E(vib)   ...       0.12
freq.     565.15  E(vib)   ...       0.11
freq.     588.46  E(vib)   ...       0.10
freq.     610.69  E(vib)   ...       0.10
freq.     632.62  E(vib)   ...       0.09
freq.     656.46  E(vib)   ...       0.08
freq.     715.28  E(vib)   ...       0.07
freq.     731.00  E(vib)   ...       0.06
freq.     741.62  E(vib)   ...       0.06
freq.     762.11  E(vib)   ...       0.06
freq.     767.27  E(vib)   ...       0.06
freq.     773.67  E(vib)   ...       0.05
freq.     780.72  E(vib)   ...       0.05
freq.     795.09  E(vib)   ...       0.05
freq.     818.91  E(vib)   ...       0.05
freq.     820.55  E(vib)   ...       0.05
freq.     824.29  E(vib)   ...       0.04
freq.     827.04  E(vib)   ...       0.04
freq.     857.38  E(vib)   ...       0.04
freq.     871.51  E(vib)   ...       0.04
freq.     902.95  E(vib)   ...       0.03
freq.     928.44  E(vib)   ...       0.03
freq.     974.29  E(vib)   ...       0.03
freq.     980.42  E(vib)   ...       0.02
freq.     985.65  E(vib)   ...       0.02
freq.     989.05  E(vib)   ...       0.02
freq.     989.50  E(vib)   ...       0.02
freq.     995.38  E(vib)   ...       0.02
freq.    1004.87  E(vib)   ...       0.02
freq.    1018.54  E(vib)   ...       0.02
freq.    1030.39  E(vib)   ...       0.02
freq.    1036.24  E(vib)   ...       0.02
freq.    1053.05  E(vib)   ...       0.02
freq.    1073.69  E(vib)   ...       0.02
freq.    1104.51  E(vib)   ...       0.02
freq.    1116.93  E(vib)   ...       0.01
freq.    1118.63  E(vib)   ...       0.01
freq.    1126.23  E(vib)   ...       0.01
freq.    1127.50  E(vib)   ...       0.01
freq.    1142.94  E(vib)   ...       0.01
freq.    1152.33  E(vib)   ...       0.01
freq.    1171.22  E(vib)   ...       0.01
freq.    1171.68  E(vib)   ...       0.01
freq.    1178.14  E(vib)   ...       0.01
freq.    1180.03  E(vib)   ...       0.01
freq.    1187.68  E(vib)   ...       0.01
freq.    1212.08  E(vib)   ...       0.01
freq.    1235.13  E(vib)   ...       0.01
freq.    1252.72  E(vib)   ...       0.01
freq.    1270.22  E(vib)   ...       0.01
freq.    1278.04  E(vib)   ...       0.01
freq.    1297.78  E(vib)   ...       0.01
freq.    1310.58  E(vib)   ...       0.01
freq.    1311.80  E(vib)   ...       0.01
freq.    1318.57  E(vib)   ...       0.01
freq.    1346.78  E(vib)   ...       0.01
freq.    1354.05  E(vib)   ...       0.01
freq.    1403.07  E(vib)   ...       0.00
freq.    1405.39  E(vib)   ...       0.00
freq.    1410.19  E(vib)   ...       0.00
freq.    1417.82  E(vib)   ...       0.00
freq.    1419.22  E(vib)   ...       0.00
freq.    1422.86  E(vib)   ...       0.00
freq.    1441.58  E(vib)   ...       0.00
freq.    1450.82  E(vib)   ...       0.00
freq.    1454.69  E(vib)   ...       0.00
freq.    1463.16  E(vib)   ...       0.00
freq.    1469.42  E(vib)   ...       0.00
freq.    1469.55  E(vib)   ...       0.00
freq.    1476.65  E(vib)   ...       0.00
freq.    1478.24  E(vib)   ...       0.00
freq.    1482.31  E(vib)   ...       0.00
freq.    1483.54  E(vib)   ...       0.00
freq.    1487.10  E(vib)   ...       0.00
freq.    1494.68  E(vib)   ...       0.00
freq.    1507.90  E(vib)   ...       0.00
freq.    1514.74  E(vib)   ...       0.00
freq.    1521.84  E(vib)   ...       0.00
freq.    1525.45  E(vib)   ...       0.00
freq.    1552.58  E(vib)   ...       0.00
freq.    1596.83  E(vib)   ...       0.00
freq.    1613.12  E(vib)   ...       0.00
freq.    1639.92  E(vib)   ...       0.00
freq.    1654.38  E(vib)   ...       0.00
freq.    1719.40  E(vib)   ...       0.00
freq.    3031.77  E(vib)   ...       0.00
freq.    3036.29  E(vib)   ...       0.00
freq.    3042.90  E(vib)   ...       0.00
freq.    3043.10  E(vib)   ...       0.00
freq.    3074.98  E(vib)   ...       0.00
freq.    3086.25  E(vib)   ...       0.00
freq.    3089.16  E(vib)   ...       0.00
freq.    3098.15  E(vib)   ...       0.00
freq.    3109.65  E(vib)   ...       0.00
freq.    3111.17  E(vib)   ...       0.00
freq.    3111.21  E(vib)   ...       0.00
freq.    3113.66  E(vib)   ...       0.00
freq.    3138.18  E(vib)   ...       0.00
freq.    3152.73  E(vib)   ...       0.00
freq.    3162.92  E(vib)   ...       0.00
freq.    3189.06  E(vib)   ...       0.00
freq.    3189.84  E(vib)   ...       0.00
freq.    3192.85  E(vib)   ...       0.00

Rotational constants in cm-1:     0.006556     0.006078     0.004406

                             ****ORCA TERMINATED NORMALLY****
TOTAL RUN TIME: 0 days 6 hours 17 minutes 22 seconds 60 msec
