                         Program Version 5.0.4 -  RELEASE  -
|  1> ! B3LYP/G OPT Def2-TZVP(-f) Def2-TZVP/C Def2/J RIJCOSX TightSCF CPCM(Water) AllPop SOSCF
|  2>
|  3> * xyz 1 1
|  4>    C       -3.29718        0.08009       -0.57754
|  5>    C       -2.94831       -1.25176       -0.76327
|  6>    C       -1.62327       -1.64483       -0.62052
|  7>    C       -2.32763        1.02670       -0.23980
|  8>    C       -0.97558        0.64571       -0.09955
|  9>    O       -2.73762        2.34302       -0.08843
| 10>    C       -0.64100       -0.70862       -0.29321
| 11>    C        0.67722       -1.14534       -0.16221
| 12>    C        1.68589       -0.24958        0.16663
| 13>    C        0.04489        1.56118        0.23933
| 14>    C        1.38134        1.09252        0.36945
| 15>    N       -0.02088        2.66985        0.44445
| 16>    C        0.59304        3.56849        0.71670
| 17>    C        1.96271        3.30950        0.88917
| 18>    C        2.39787        1.99616        0.70805
| 19>    C       -3.79792        2.81287        0.61524
| 20>    O       -4.43963        3.76563        0.22065
| 21>    N       -4.03014        2.23940        1.83272
| 22>    C       -5.21182        2.62287        2.62242
| 23>    C       -3.05282        1.42865        2.58379
| 24>    H       -2.04020        1.78802        2.38208
| 25>    H       -3.13894        0.38035        2.28744
| 26>    H       -3.23560        1.51033        3.65869
| 27>    H       -6.06995        2.76518        1.95948
| 28>    H       -5.00538        3.55722        3.15131
| 29>    H       -5.45505        1.83955        3.34553
| 30>    H       -1.35861       -2.68939       -0.76955
| 31>    H       -4.33440        0.38243       -0.70035
| 32>    H       -3.70950       -1.98289       -1.02389
| 33>    H        0.92628       -2.19290       -0.31588
| 34>    H        2.70958       -0.60264        0.26670
| 35>    H        0.18834        4.57130        0.84227
| 36>    H        2.65738        4.10272        1.15388
| 37>    H        3.43881        1.70436        0.82230
| 38>    H       -0.95085        2.87464        0.07772
| 39> *
| 40>
| 41>
| 42>                          ****END OF INPUT****
 Total Charge           Charge          ....    1
 Multiplicity           Mult            ....    1
 Number of Electrons    NEL             ....  140
FINAL SINGLE POINT ENERGY      -878.703410667121
FINAL SINGLE POINT ENERGY      -878.824534119881
FINAL SINGLE POINT ENERGY      -878.870796103381
FINAL SINGLE POINT ENERGY      -878.884426679520
FINAL SINGLE POINT ENERGY      -878.886471959080
FINAL SINGLE POINT ENERGY      -878.887398482509
FINAL SINGLE POINT ENERGY      -878.888445008246
FINAL SINGLE POINT ENERGY      -878.889482755343
FINAL SINGLE POINT ENERGY      -878.890219059771
FINAL SINGLE POINT ENERGY      -878.890714684715
FINAL SINGLE POINT ENERGY      -878.896228662613
FINAL SINGLE POINT ENERGY      -878.896241963750
FINAL SINGLE POINT ENERGY      -878.896268474915
FINAL SINGLE POINT ENERGY      -878.896292562377
FINAL SINGLE POINT ENERGY      -878.896319180659
FINAL SINGLE POINT ENERGY      -878.896333411948
FINAL SINGLE POINT ENERGY      -878.896342120200
FINAL SINGLE POINT ENERGY      -878.896344031986
FINAL SINGLE POINT ENERGY      -878.896345308610
                    ***********************HURRAY********************

CARTESIAN COORDINATES (ANGSTROEM)
---------------------------------
  C     -3.017028   -0.845145    0.129571
  C     -2.568342   -1.871685   -0.706515
  C     -1.274663   -1.867547   -1.173604
  C     -2.170766    0.179918    0.483913
  C     -0.826050    0.217404    0.039426
  O     -2.617014    1.162436    1.358496
  C     -0.386246   -0.840073   -0.812553
  C      0.956334   -0.856770   -1.308411
  C      1.843622    0.114077   -0.993623
  C      0.139978    1.230317    0.376633
  C      1.458196    1.188212   -0.136671
  N     -0.165204    2.265605    1.207713
  C      0.681959    3.236697    1.551496
  C      1.974610    3.235504    1.057999
  C      2.355934    2.208222    0.219483
  C     -3.762587    1.897463    1.008416
  O     -4.177091    1.918323   -0.133051
  N     -4.257442    2.556066    2.063031
  C     -5.361104    3.490846    1.862263
  C     -3.774257    2.432695    3.437032
  H     -3.112760    1.580739    3.538879
  H     -4.632701    2.295433    4.095833
  H     -3.247165    3.341455    3.735932
  H     -5.571364    3.588499    0.802860
  H     -5.087517    4.465183    2.270823
  H     -6.253220    3.131170    2.378829
  H     -0.919679   -2.657598   -1.822203
  H     -4.031187   -0.847532    0.503716
  H     -3.246972   -2.669075   -0.978963
  H      1.245488   -1.676239   -1.953939
  H      2.855950    0.098003   -1.375107
  H      0.296211    3.991024    2.221085
  H      2.656094    4.024728    1.337821
  H      3.362682    2.173960   -0.177673
  H     -1.105628    2.278475    1.592864

 Multiplicity           Mult            ....    1
 Number of Electrons    NEL             ....  140
 Basis Dimension        Dim             ....  570

ORBITAL ENERGIES
----------------

  NO   OCC          E(Eh)            E(eV)
   0   2.0000     -19.201687      -522.5045
   1   2.0000     -19.117855      -520.2233
   2   2.0000     -14.427879      -392.6026
   3   2.0000     -14.368849      -390.9963
   4   2.0000     -10.338573      -281.3269
   5   2.0000     -10.275951      -279.6229
   6   2.0000     -10.269282      -279.4414
   7   2.0000     -10.265832      -279.3475
   8   2.0000     -10.229535      -278.3598
   9   2.0000     -10.228938      -278.3436
  10   2.0000     -10.227178      -278.2957
  11   2.0000     -10.217409      -278.0298
  12   2.0000     -10.215727      -277.9841
  13   2.0000     -10.205925      -277.7173
  14   2.0000     -10.203491      -277.6511
  15   2.0000     -10.201617      -277.6001
  16   2.0000     -10.200590      -277.5722
  17   2.0000     -10.198264      -277.5089
  18   2.0000     -10.196968      -277.4736
  19   2.0000     -10.193294      -277.3736
  20   2.0000      -1.134244       -30.8643
  21   2.0000      -1.047763       -28.5111
  22   2.0000      -1.037214       -28.2240
  23   2.0000      -0.962794       -26.1990
  24   2.0000      -0.908192       -24.7132
  25   2.0000      -0.871695       -23.7200
  26   2.0000      -0.845440       -23.0056
  27   2.0000      -0.813085       -22.1252
  28   2.0000      -0.780269       -21.2322
  29   2.0000      -0.767528       -20.8855
  30   2.0000      -0.731874       -19.9153
  31   2.0000      -0.725735       -19.7483
  32   2.0000      -0.697158       -18.9706
  33   2.0000      -0.688641       -18.7389
  34   2.0000      -0.669119       -18.2077
  35   2.0000      -0.649636       -17.6775
  36   2.0000      -0.608392       -16.5552
  37   2.0000      -0.596220       -16.2240
  38   2.0000      -0.559342       -15.2205
  39   2.0000      -0.554180       -15.0800
  40   2.0000      -0.548029       -14.9126
  41   2.0000      -0.541562       -14.7366
  42   2.0000      -0.512013       -13.9326
  43   2.0000      -0.509566       -13.8660
  44   2.0000      -0.502617       -13.6769
  45   2.0000      -0.495824       -13.4921
  46   2.0000      -0.488354       -13.2888
  47   2.0000      -0.479973       -13.0607
  48   2.0000      -0.468108       -12.7379
  49   2.0000      -0.457937       -12.4611
  50   2.0000      -0.457532       -12.4501
  51   2.0000      -0.445848       -12.1322
  52   2.0000      -0.433507       -11.7963
  53   2.0000      -0.429714       -11.6931
  54   2.0000      -0.415812       -11.3148
  55   2.0000      -0.411739       -11.2040
  56   2.0000      -0.409068       -11.1313
  57   2.0000      -0.408110       -11.1052
  58   2.0000      -0.399978       -10.8839
  59   2.0000      -0.391551       -10.6547
  60   2.0000      -0.382975       -10.4213
  61   2.0000      -0.379288       -10.3210
  62   2.0000      -0.367054        -9.9881
  63   2.0000      -0.345179        -9.3928
  64   2.0000      -0.337187        -9.1753
  65   2.0000      -0.308888        -8.4053
  66   2.0000      -0.303981        -8.2717
  67   2.0000      -0.274862        -7.4794
  68   2.0000      -0.265026        -7.2117
  69   2.0000      -0.247869        -6.7449
  70   0.0000      -0.104604        -2.8464
  71   0.0000      -0.078108        -2.1254
  72   0.0000      -0.042358        -1.1526
  73   0.0000      -0.011969        -0.3257
  74   0.0000       0.021130         0.5750

MULLIKEN ATOMIC CHARGES
-----------------------
   0 C :   -0.128050
   1 C :   -0.083831
   2 C :   -0.177995
   3 C :    0.172746
   4 C :    0.271781
   5 O :   -0.540458
   6 C :    0.236800
   7 C :   -0.215533
   8 C :   -0.251111
   9 C :   -0.016288
  10 C :    0.398036
  11 N :   -0.202306
  12 C :    0.127563
  13 C :   -0.031511
  14 C :   -0.162234
  15 C :    0.685499
  16 O :   -0.597485
  17 N :   -0.209050
  18 C :   -0.250948
  19 C :   -0.271654
  20 H :    0.158959
  21 H :    0.152047
  22 H :    0.146335
  23 H :    0.149847
  24 H :    0.142413
  25 H :    0.144783
  26 H :    0.121760
  27 H :    0.126398
  28 H :    0.124718
  29 H :    0.121993
  30 H :    0.119774
  31 H :    0.184357
  32 H :    0.151270
  33 H :    0.149240
  34 H :    0.252136
Sum of atomic charges:    1.0000000

LOEWDIN ATOMIC CHARGES
----------------------
   0 C :   -0.078856
   1 C :   -0.096210
   2 C :   -0.079110
   3 C :   -0.116741
   4 C :   -0.024946
   5 O :    0.154974
   6 C :   -0.066235
   7 C :   -0.061120
   8 C :   -0.073114
   9 C :   -0.013558
  10 C :   -0.069665
  11 N :    0.223992
  12 C :   -0.035959
  13 C :   -0.091574
  14 C :   -0.004037
  15 C :   -0.341942
  16 O :   -0.069538
  17 N :    0.087713
  18 C :   -0.207900
  19 C :   -0.214285
  20 H :    0.120131
  21 H :    0.119229
  22 H :    0.115546
  23 H :    0.120567
  24 H :    0.117346
  25 H :    0.116199
  26 H :    0.151048
  27 H :    0.154708
  28 H :    0.149311
  29 H :    0.154656
  30 H :    0.154777
  31 H :    0.162707
  32 H :    0.159858
  33 H :    0.163277
  34 H :    0.218748

  Mayer bond orders larger than 0.100000
B(  0-C ,  1-C ) :   1.2647 B(  0-C ,  3-C ) :   1.4622 B(  0-C , 27-H ) :   0.9880
B(  1-C ,  2-C ) :   1.4008 B(  1-C , 28-H ) :   0.9892 B(  2-C ,  6-C ) :   1.2783
B(  2-C , 26-H ) :   0.9950 B(  3-C ,  4-C ) :   1.2303 B(  3-C ,  5-O ) :   0.8197
B(  4-C ,  6-C ) :   1.3203 B(  4-C ,  9-C ) :   0.9817 B(  5-O , 15-C ) :   0.9457
B(  6-C ,  7-C ) :   1.1286 B(  7-C ,  8-C ) :   1.4997 B(  7-C , 29-H ) :   1.0044
B(  8-C , 10-C ) :   1.1233 B(  8-C , 30-H ) :   1.0168 B(  9-C , 10-C ) :   1.3183
B(  9-C , 11-N ) :   1.2843 B( 10-C , 14-C ) :   1.2918 B( 11-N , 12-C ) :   1.3384
B( 11-N , 34-H ) :   0.8514 B( 12-C , 13-C ) :   1.3872 B( 12-C , 31-H ) :   0.9371
B( 13-C , 14-C ) :   1.4276 B( 13-C , 32-H ) :   0.9593 B( 14-C , 33-H ) :   0.9579
B( 15-C , 16-O ) :   1.8358 B( 15-C , 17-N ) :   1.3664 B( 17-N , 18-C ) :   0.9298
B( 17-N , 19-C ) :   0.9336 B( 18-C , 23-H ) :   0.9622 B( 18-C , 24-H ) :   0.9583
B( 18-C , 25-H ) :   0.9619 B( 19-C , 20-H ) :   0.9588 B( 19-C , 21-H ) :   0.9553
B( 19-C , 22-H ) :   0.9634

FINAL SINGLE POINT ENERGY      -878.896346071514

DIPOLE MOMENT
-------------
                                X             Y             Z
Electronic contribution:      8.70822      -4.50790      -5.71161
Nuclear contribution   :     -6.11744       6.02339       7.69970
                        -----------------------------------------
Total Dipole Moment    :      2.59078       1.51549       1.98809
                        -----------------------------------------
Magnitude (a.u.)       :      3.60019
Magnitude (Debye)      :      9.15095

Rotational constants in cm-1:     0.016846     0.009580     0.006527
Rotational constants in MHz :   505.039985   287.211467   195.672795

                             ****ORCA TERMINATED NORMALLY****
TOTAL RUN TIME: 0 days 10 hours 57 minutes 31 seconds 256 msec
