                         Program Version 5.0.4 -  RELEASE  -
|  1> ! B3LYP/G VERYTIGHTOPT FREQ Def2-TZVP(-f) Def2-TZVP/C Def2/J RIJCOSX TightSCF CPCM(Water) AllPop SOSCF
|  2>
|  3> * xyz 0 1
|  4>   C   -3.29427742206977     -0.64644673085454     -0.61830236256619
|  5>   C   -2.79193783387700     -1.50249156800673     -1.60322792775029
|  6>   C   -1.43844741589871     -1.54295748570471     -1.83596893493297
|  7>   C   -2.44969206905909      0.15850848959996      0.11391956764737
|  8>   C   -1.04607727993728      0.15369735491148     -0.08995443163697
|  9>   O   -3.05525269796050      0.89173977299862      1.12959822010116
| 10>   C   -0.55477066364860     -0.73383628884240     -1.09494226085955
| 11>   C   0.85066792963646     -0.81848025448833     -1.35762898897175
| 12>   C   1.74401779923739     -0.07425581331070     -0.66737944471889
| 13>   C   -0.08241957285496      0.96443894314803      0.64180782419541
| 14>   C   1.30221875961813      0.83188058829893      0.34390661999475
| 15>   N   -0.50882215483953      1.83341350947850      1.58611497959203
| 16>   C   0.37819738949340      2.55939671190755      2.24324732821966
| 17>   C   1.76019638572666      2.49029902726503      2.02389061707692
| 18>   C   2.21723932916533      1.61947413145264      1.06525520416058
| 19>   C   -3.31427517051416      2.21787061229053      0.89751096115064
| 20>   O   -3.11988103641509      2.74303800996144     -0.18822723553327
| 21>   N   -3.81843227930513      2.82579231825617      1.98870596281696
| 22>   C   -4.10556772801243      2.13772237657102      3.24266622696836
| 23>   C   -4.30227119923351      4.19610361307538      1.88500291297919
| 24>   H   -3.98874170086744      4.62290173107799      0.93846166745227
| 25>   H   -3.89263782966633      4.78961938799755      2.70400595438292
| 26>   H   -5.39382275814618      4.22350650742727      1.94830989785070
| 27>   H   -3.48220878815922      1.25726619784040      3.34737346058787
| 28>   H   -5.15750648016043      1.84205279906163      3.29595013045477
| 29>   H   -3.89638476178200      2.81849315185918      4.06829296562207
| 30>   H   -1.02766113168993     -2.20187664831027     -2.59059448930793
| 31>   H   -4.35518479399456     -0.60407587746015     -0.40998670468854
| 32>   H   -3.46975409960987     -2.12665192730886     -2.17083923618162
| 33>   H   1.18140391106415     -1.50342445895894     -2.12860190829612
| 34>   H   2.80578802419604     -0.14726035945888     -0.86955320666875
| 35>   H   -0.01665804974943      3.24215862326288      2.98920828240005
| 36>   H   2.43579950381512      3.11184457478342      2.59606312027014
| 37>   H   3.27530588549879      1.52837898017867      0.85029522818887
| 38> **                         ****END OF INPUT****
 Total Charge           Charge          ....    0
 Multiplicity           Mult            ....    1
 Number of Electrons    NEL             ....  140
FINAL SINGLE POINT ENERGY      -878.440365685095
FINAL SINGLE POINT ENERGY      -878.440365536512
FINAL SINGLE POINT ENERGY      -878.440364675160
FINAL SINGLE POINT ENERGY      -878.440364250916
FINAL SINGLE POINT ENERGY      -878.440365071521
FINAL SINGLE POINT ENERGY      -878.440366195305
FINAL SINGLE POINT ENERGY      -878.440365564736
FINAL SINGLE POINT ENERGY      -878.440364831706
FINAL SINGLE POINT ENERGY      -878.440364927396
                    ***********************HURRAY********************

CARTESIAN COORDINATES (ANGSTROEM)
---------------------------------
  C     -3.295031   -0.644627   -0.621117
  C     -2.792375   -1.500681   -1.605777
  C     -1.438621   -1.542480   -1.836878
  C     -2.450616    0.159263    0.112388
  C     -1.046805    0.153775   -0.090292
  O     -3.056225    0.892313    1.128205
  C     -0.555040   -0.734252   -1.094751
  C      0.850628   -0.820183   -1.355678
  C      1.743745   -0.076398   -0.664654
  C     -0.083319    0.964500    0.641843
  C      1.301478    0.830763    0.345495
  N     -0.510163    1.834717    1.584797
  C      0.376692    2.560744    2.242052
  C      1.758888    2.490539    2.024336
  C      2.216351    1.618450    1.067014
  C     -3.315008    2.218575    0.896467
  O     -3.121480    2.743824   -0.189344
  N     -3.818308    2.825932    1.988337
  C     -4.101003    2.136842    3.242764
  C     -4.303019    4.196014    1.886035
  H     -4.002994    4.618330    0.933126
  H     -3.882036    4.793743    2.696251
  H     -5.393529    4.223302    1.964637
  H     -3.464113    1.266699    3.353241
  H     -5.148308    1.824675    3.292815
  H     -3.905872    2.823529    4.066824
  H     -1.027607   -2.201889   -2.590949
  H     -4.356040   -0.601214   -0.413464
  H     -3.469948   -2.123979   -2.174629
  H      1.181834   -1.505801   -2.125856
  H      2.805696   -0.150475   -0.865497
  H     -0.018554    3.244629    2.986801
  H      2.434279    3.112217    2.596603
  H      3.274574    1.526442    0.853236

 Multiplicity           Mult            ....    1
 Number of Electrons    NEL             ....  140
 Basis Dimension        Dim             ....  564

ORBITAL ENERGIES
----------------

  NO   OCC          E(Eh)            E(eV)
   0   2.0000     -19.175273      -521.7857
   1   2.0000     -19.101333      -519.7737
   2   2.0000     -14.352754      -390.5583
   3   2.0000     -14.318770      -389.6335
   4   2.0000     -10.322120      -280.8792
   5   2.0000     -10.248204      -278.8678
   6   2.0000     -10.226623      -278.2806
   7   2.0000     -10.212378      -277.8929
   8   2.0000     -10.202661      -277.6285
   9   2.0000     -10.198713      -277.5211
  10   2.0000     -10.198038      -277.5027
  11   2.0000     -10.197035      -277.4754
  12   2.0000     -10.196734      -277.4672
  13   2.0000     -10.193892      -277.3899
  14   2.0000     -10.184055      -277.1222
  15   2.0000     -10.184043      -277.1219
  16   2.0000     -10.183948      -277.1193
  17   2.0000     -10.183282      -277.1012
  18   2.0000     -10.181961      -277.0652
  19   2.0000     -10.180966      -277.0382
  20   2.0000      -1.117001       -30.3951
  21   2.0000      -1.023811       -27.8593
  22   2.0000      -0.956417       -26.0254
  23   2.0000      -0.947732       -25.7891
  24   2.0000      -0.882357       -24.0102
  25   2.0000      -0.840258       -22.8646
  26   2.0000      -0.808737       -22.0068
  27   2.0000      -0.784637       -21.3511
  28   2.0000      -0.752914       -20.4878
  29   2.0000      -0.745725       -20.2922
  30   2.0000      -0.722273       -19.6540
  31   2.0000      -0.707633       -19.2557
  32   2.0000      -0.657083       -17.8801
  33   2.0000      -0.649660       -17.6781
  34   2.0000      -0.632761       -17.2183
  35   2.0000      -0.620602       -16.8874
  36   2.0000      -0.575547       -15.6614
  37   2.0000      -0.548326       -14.9207
  38   2.0000      -0.537755       -14.6330
  39   2.0000      -0.532120       -14.4797
  40   2.0000      -0.517719       -14.0878
  41   2.0000      -0.497650       -13.5418
  42   2.0000      -0.493961       -13.4414
  43   2.0000      -0.484687       -13.1890
  44   2.0000      -0.480492       -13.0748
  45   2.0000      -0.467688       -12.7264
  46   2.0000      -0.446116       -12.1394
  47   2.0000      -0.445839       -12.1319
  48   2.0000      -0.437834       -11.9141
  49   2.0000      -0.430821       -11.7232
  50   2.0000      -0.420773       -11.4498
  51   2.0000      -0.415349       -11.3022
  52   2.0000      -0.408561       -11.1175
  53   2.0000      -0.407040       -11.0761
  54   2.0000      -0.406332       -11.0568
  55   2.0000      -0.402168       -10.9435
  56   2.0000      -0.386864       -10.5271
  57   2.0000      -0.385485       -10.4896
  58   2.0000      -0.378091       -10.2884
  59   2.0000      -0.364437        -9.9168
  60   2.0000      -0.357048        -9.7158
  61   2.0000      -0.338268        -9.2047
  62   2.0000      -0.320281        -8.7153
  63   2.0000      -0.307878        -8.3778
  64   2.0000      -0.291394        -7.9292
  65   2.0000      -0.283124        -7.7042
  66   2.0000      -0.263591        -7.1727
  67   2.0000      -0.251948        -6.8559
  68   2.0000      -0.250440        -6.8148
  69   2.0000      -0.230659        -6.2765
  70   0.0000      -0.063810        -1.7364
  71   0.0000      -0.055691        -1.5154
  72   0.0000      -0.018441        -0.5018
  73   0.0000       0.008460         0.2302
  74   0.0000       0.031988         0.8705

MULLIKEN ATOMIC CHARGES
-----------------------
   0 C :   -0.157893
   1 C :   -0.112982
   2 C :   -0.186658
   3 C :    0.131345
   4 C :    0.171150
   5 O :   -0.471526
   6 C :    0.235499
   7 C :   -0.243929
   8 C :   -0.259444
   9 C :    0.148502
  10 C :    0.342973
  11 N :   -0.519324
  12 C :    0.064768
  13 C :   -0.044500
  14 C :   -0.208460
  15 C :    0.747841
  16 O :   -0.641829
  17 N :   -0.232999
  18 C :   -0.264999
  19 C :   -0.248664
  20 H :    0.144071
  21 H :    0.138198
  22 H :    0.133256
  23 H :    0.149344
  24 H :    0.136094
  25 H :    0.138770
  26 H :    0.111049
  27 H :    0.112640
  28 H :    0.112458
  29 H :    0.108111
  30 H :    0.104666
  31 H :    0.117581
  32 H :    0.121786
  33 H :    0.123107
Sum of atomic charges:   -0.0000000

LOEWDIN ATOMIC CHARGES
----------------------
   0 C :   -0.099170
   1 C :   -0.120928
   2 C :   -0.096006
   3 C :   -0.121575
   4 C :   -0.027623
   5 O :    0.177530
   6 C :   -0.080885
   7 C :   -0.089909
   8 C :   -0.093309
   9 C :   -0.089109
  10 C :   -0.089866
  11 N :    0.067097
  12 C :   -0.157583
  13 C :   -0.128527
  14 C :   -0.064353
  15 C :   -0.357853
  16 O :   -0.102237
  17 N :    0.074459
  18 C :   -0.223893
  19 C :   -0.220141
  20 H :    0.118017
  21 H :    0.113585
  22 H :    0.111949
  23 H :    0.116464
  24 H :    0.110854
  25 H :    0.115881
  26 H :    0.145645
  27 H :    0.147272
  28 H :    0.143574
  29 H :    0.147263
  30 H :    0.146666
  31 H :    0.133255
  32 H :    0.144201
  33 H :    0.149254

  Mayer bond orders larger than 0.100000
B(  0-C ,  1-C ) :   1.2609 B(  0-C ,  3-C ) :   1.4934 B(  0-C , 27-H ) :   1.0019
B(  1-C ,  2-C ) :   1.4080 B(  1-C , 28-H ) :   0.9995 B(  2-C ,  6-C ) :   1.2634
B(  2-C , 26-H ) :   1.0014 B(  3-C ,  4-C ) :   1.2169 B(  3-C ,  5-O ) :   0.9064
B(  4-C ,  6-C ) :   1.3155 B(  4-C ,  9-C ) :   1.0009 B(  5-O , 15-C ) :   0.9991
B(  6-C ,  7-C ) :   1.1178 B(  7-C ,  8-C ) :   1.5204 B(  7-C , 29-H ) :   1.0109
B(  8-C , 10-C ) :   1.1063 B(  8-C , 30-H ) :   1.0200 B(  9-C , 10-C ) :   1.3171
B(  9-C , 11-N ) :   1.3682 B( 10-C , 14-C ) :   1.2824 B( 11-N , 12-C ) :   1.5614
B( 12-C , 13-C ) :   1.3123 B( 12-C , 31-H ) :   0.9756 B( 13-C , 14-C ) :   1.4748
B( 13-C , 32-H ) :   0.9664 B( 14-C , 33-H ) :   0.9710 B( 15-C , 16-O ) :   1.7726
B( 15-C , 17-N ) :   1.3228 B( 17-N , 18-C ) :   0.9476 B( 17-N , 19-C ) :   0.9407
B( 18-C , 23-H ) :   0.9618 B( 18-C , 24-H ) :   0.9613 B( 18-C , 25-H ) :   0.9639
B( 19-C , 20-H ) :   0.9631 B( 19-C , 21-H ) :   0.9640 B( 19-C , 22-H ) :   0.9602

FINAL SINGLE POINT ENERGY      -878.440365547304

DIPOLE MOMENT
-------------
                                X             Y             Z
Electronic contribution:      6.14559      -5.76421      -5.53500
Nuclear contribution   :     -5.41639       5.35556       6.67603
                        -----------------------------------------
Total Dipole Moment    :      0.72920      -0.40864       1.14102
                        -----------------------------------------
Magnitude (a.u.)       :      1.41444
Magnitude (Debye)      :      3.59523

VIBRATIONAL FREQUENCIES
-----------------------

Scaling factor for frequencies =  1.000000000  (already applied!)

   0:         0.00 cm**-1
   1:         0.00 cm**-1
   2:         0.00 cm**-1
   3:         0.00 cm**-1
   4:         0.00 cm**-1
   5:         0.00 cm**-1
   6:        34.39 cm**-1
   7:        37.81 cm**-1
   8:        48.59 cm**-1
   9:        63.40 cm**-1
  10:        93.22 cm**-1
  11:        99.88 cm**-1
  12:       112.98 cm**-1
  13:       126.95 cm**-1
  14:       204.04 cm**-1
  15:       216.87 cm**-1
  16:       228.73 cm**-1
  17:       232.99 cm**-1
  18:       241.27 cm**-1
  19:       296.99 cm**-1
  20:       365.74 cm**-1
  21:       380.02 cm**-1
  22:       410.58 cm**-1
  23:       422.26 cm**-1
  24:       465.83 cm**-1
  25:       491.03 cm**-1
  26:       510.84 cm**-1
  27:       522.48 cm**-1
  28:       525.74 cm**-1
  29:       562.78 cm**-1
  30:       584.63 cm**-1
  31:       606.37 cm**-1
  32:       625.05 cm**-1
  33:       661.07 cm**-1
  34:       703.26 cm**-1
  35:       732.19 cm**-1
  36:       743.33 cm**-1
  37:       746.37 cm**-1
  38:       776.49 cm**-1
  39:       804.48 cm**-1
  40:       828.10 cm**-1
  41:       837.83 cm**-1
  42:       864.32 cm**-1
  43:       871.31 cm**-1
  44:       883.85 cm**-1
  45:       926.93 cm**-1
  46:       971.05 cm**-1
  47:       976.59 cm**-1
  48:       984.11 cm**-1
  49:       991.31 cm**-1
  50:      1004.28 cm**-1
  51:      1032.05 cm**-1
  52:      1046.59 cm**-1
  53:      1075.64 cm**-1
  54:      1083.84 cm**-1
  55:      1109.98 cm**-1
  56:      1125.52 cm**-1
  57:      1148.06 cm**-1
  58:      1161.28 cm**-1
  59:      1172.70 cm**-1
  60:      1178.15 cm**-1
  61:      1187.52 cm**-1
  62:      1218.08 cm**-1
  63:      1224.18 cm**-1
  64:      1255.46 cm**-1
  65:      1271.27 cm**-1
  66:      1278.01 cm**-1
  67:      1322.85 cm**-1
  68:      1341.30 cm**-1
  69:      1354.04 cm**-1
  70:      1409.18 cm**-1
  71:      1414.65 cm**-1
  72:      1437.72 cm**-1
  73:      1452.19 cm**-1
  74:      1456.75 cm**-1
  75:      1462.78 cm**-1
  76:      1476.12 cm**-1
  77:      1479.51 cm**-1
  78:      1486.68 cm**-1
  79:      1491.80 cm**-1
  80:      1522.87 cm**-1
  81:      1532.07 cm**-1
  82:      1545.35 cm**-1
  83:      1598.10 cm**-1
  84:      1630.72 cm**-1
  85:      1644.54 cm**-1
  86:      1659.77 cm**-1
  87:      1705.79 cm**-1
  88:      3022.50 cm**-1
  89:      3026.48 cm**-1
  90:      3078.92 cm**-1
  91:      3089.54 cm**-1
  92:      3149.20 cm**-1
  93:      3169.64 cm**-1
  94:      3172.75 cm**-1
  95:      3173.08 cm**-1
  96:      3178.76 cm**-1
  97:      3179.90 cm**-1
  98:      3189.22 cm**-1
  99:      3192.38 cm**-1
 100:      3203.20 cm**-1
 101:      3203.48 cm**-1

IR SPECTRUM
-----------

 Mode   freq       eps      Int      T**2         TX        TY        TZ
       cm**-1   L/(mol*cm) km/mol    a.u.
----------------------------------------------------------------------------
  6:     34.39   0.000411    2.08  0.003727  ( 0.026816 -0.048635  0.025358)
  7:     37.81   0.001220    6.16  0.010067  ( 0.082380  0.018716  0.054133)
  8:     48.59   0.000327    1.65  0.002097  (-0.028082 -0.035736 -0.005611)
  9:     63.40   0.000003    0.02  0.000016  (-0.001921 -0.000395  0.003452)
 10:     93.22   0.000441    2.23  0.001475  (-0.030346  0.006701 -0.022565)
 11:     99.88   0.001817    9.18  0.005677  ( 0.000283  0.060756 -0.044557)
 12:    112.98   0.000642    3.24  0.001773  (-0.025388  0.033001 -0.006268)
 13:    126.95   0.000654    3.31  0.001608  (-0.035114 -0.016765 -0.009672)
 14:    204.04   0.000121    0.61  0.000186  (-0.011732  0.001828  0.006675)
 15:    216.87   0.000581    2.94  0.000836  (-0.025064 -0.011166 -0.009124)
 16:    228.73   0.000273    1.38  0.000373  (-0.012296 -0.000234 -0.014890)
 17:    232.99   0.001304    6.59  0.001746  (-0.002409 -0.029184  0.029815)
 18:    241.27   0.000970    4.90  0.001254  ( 0.005157 -0.015991 -0.031172)
 19:    296.99   0.000101    0.51  0.000106  (-0.001574 -0.005725  0.008422)
 20:    365.74   0.003438   17.38  0.002934  (-0.022252  0.043889  0.022634)
 21:    380.02   0.001126    5.69  0.000925  ( 0.014787 -0.026061 -0.005211)
 22:    410.58   0.000898    4.54  0.000683  ( 0.013618 -0.010592 -0.019626)
 23:    422.26   0.000030    0.15  0.000022  ( 0.001919 -0.004114 -0.001365)
 24:    465.83   0.001872    9.46  0.001254  (-0.013432  0.025312 -0.020814)
 25:    491.03   0.000179    0.91  0.000114  ( 0.004674 -0.004558 -0.008444)
 26:    510.84   0.000044    0.22  0.000027  (-0.003951 -0.001293  0.003081)
 27:    522.48   0.001070    5.41  0.000639  ( 0.000646  0.024923 -0.004160)
 28:    525.74   0.000977    4.94  0.000580  (-0.023592 -0.002051 -0.004357)
 29:    562.78   0.001196    6.04  0.000663  ( 0.013848  0.012808  0.017532)
 30:    584.63   0.000325    1.64  0.000174  (-0.009381  0.000434  0.009245)
 31:    606.37   0.001797    9.08  0.000925  (-0.024921 -0.000212  0.017434)
 32:    625.05   0.002259   11.42  0.001128  (-0.029340 -0.015422  0.005415)
 33:    661.07   0.001270    6.42  0.000599  ( 0.015370  0.005023  0.018382)
 34:    703.26   0.000658    3.33  0.000292  (-0.014691  0.002946  0.008218)
 35:    732.19   0.000674    3.41  0.000287  (-0.008246  0.003566 -0.014376)
 36:    743.33   0.012649   63.92  0.005310  (-0.044312 -0.057770  0.003062)
 37:    746.37   0.017282   87.34  0.007226  ( 0.032705 -0.050328  0.060194)
 38:    776.49   0.004352   21.99  0.001749  ( 0.006603 -0.019564  0.036369)
 39:    804.48   0.000309    1.56  0.000120  ( 0.001453  0.010370 -0.003181)
 40:    828.10   0.002386   12.06  0.000899  ( 0.024473 -0.002532  0.017135)
 41:    837.83   0.005270   26.63  0.001963  (-0.024151  0.001000  0.037131)
 42:    864.32   0.014667   74.12  0.005295  ( 0.010886 -0.055257  0.046082)
 43:    871.31   0.000594    3.00  0.000213  ( 0.010139  0.007948  0.006840)
 44:    883.85   0.007601   38.41  0.002684  ( 0.012334 -0.045167  0.022169)
 45:    926.93   0.000572    2.89  0.000193  (-0.007682  0.009470  0.006628)
 46:    971.05   0.000062    0.31  0.000020  ( 0.000115  0.003025 -0.003278)
 47:    976.59   0.000207    1.05  0.000066  ( 0.001412 -0.005984  0.005330)
 48:    984.11   0.000044    0.22  0.000014  ( 0.000273  0.002056 -0.003104)
 49:    991.31   0.005604   28.32  0.001764  (-0.023120 -0.003569  0.034883)
 50:   1004.28   0.000293    1.48  0.000091  ( 0.000907 -0.007036  0.006378)
 51:   1032.05   0.011256   56.88  0.003403  ( 0.047148 -0.034356 -0.000431)
 52:   1046.59   0.005454   27.56  0.001626  ( 0.013448 -0.037979 -0.001742)
 53:   1075.64   0.003626   18.33  0.001052  (-0.002544  0.029167 -0.013960)
 54:   1083.84   0.001600    8.09  0.000461  ( 0.006455 -0.017345 -0.010875)
 55:   1109.98   0.000616    3.11  0.000173  (-0.013137 -0.000051 -0.000834)
 56:   1125.52   0.000620    3.13  0.000172  ( 0.003938  0.005215 -0.011368)
 57:   1148.06   0.006422   32.46  0.001746  (-0.007779 -0.035807 -0.020076)
 58:   1161.28   0.130366  658.82  0.035032  (-0.088756  0.134452  0.095276)
 59:   1172.70   0.000889    4.49  0.000237  ( 0.012170 -0.009092  0.002411)
 60:   1178.15   0.062886  317.80  0.016657  (-0.065559  0.099867  0.048843)
 61:   1187.52   0.004055   20.49  0.001066  ( 0.016927 -0.027022 -0.006994)
 62:   1218.08   0.006252   31.60  0.001602  ( 0.013541 -0.032120 -0.019665)
 63:   1224.18   0.007456   37.68  0.001901  ( 0.022523 -0.033100 -0.017253)
 64:   1255.46   0.030141  152.32  0.007492  (-0.051178  0.064355  0.027043)
 65:   1271.27   0.003058   15.46  0.000751  (-0.004311  0.026773  0.003923)
 66:   1278.01   0.001766    8.93  0.000431  (-0.013274 -0.003006  0.015687)
 67:   1322.85   0.002191   11.07  0.000517  ( 0.016806 -0.012647 -0.008628)
 68:   1341.30   0.006415   32.42  0.001492  ( 0.022017 -0.024850 -0.019754)
 69:   1354.04   0.002365   11.95  0.000545  (-0.015246  0.013389  0.011546)
 70:   1409.18   0.043286  218.75  0.009586  (-0.022845  0.077782  0.054897)
 71:   1414.65   0.022897  115.71  0.005051  (-0.055471  0.039764  0.019821)
 72:   1437.72   0.002714   13.71  0.000589  (-0.006369 -0.007749  0.022100)
 73:   1452.19   0.005228   26.42  0.001123  ( 0.001043  0.030236  0.014425)
 74:   1456.75   0.005306   26.81  0.001137  (-0.000075  0.027929  0.018884)
 75:   1462.78   0.007297   36.88  0.001557  (-0.009414  0.029588 -0.024344)
 76:   1476.12   0.004238   21.42  0.000896  ( 0.026532 -0.000307 -0.013854)
 77:   1479.51   0.000682    3.45  0.000144  ( 0.006822  0.001593  0.009740)
 78:   1486.68   0.006715   33.94  0.001410  (-0.026790 -0.004032 -0.025993)
 79:   1491.80   0.002605   13.17  0.000545  ( 0.000032  0.022129 -0.007434)
 80:   1522.87   0.016922   85.51  0.003468  ( 0.023863 -0.053720 -0.003499)
 81:   1532.07   0.002574   13.01  0.000524  (-0.003560 -0.020328 -0.009921)
 82:   1545.35   0.007346   37.13  0.001484  (-0.023708  0.024577  0.017816)
 83:   1598.10   0.007674   38.78  0.001499  ( 0.037822 -0.004269 -0.007059)
 84:   1630.72   0.011081   56.00  0.002120  (-0.008994 -0.032345 -0.031518)
 85:   1644.54   0.001073    5.42  0.000204  (-0.007307 -0.007371 -0.009790)
 86:   1659.77   0.003693   18.67  0.000694  ( 0.025395  0.007038  0.000105)
 87:   1705.79   0.189112  955.69  0.034597  ( 0.054264  0.018006 -0.176997)
 88:   3022.50   0.007821   39.53  0.000808  ( 0.005036  0.023874 -0.014568)
 89:   3026.48   0.021711  109.72  0.002239  (-0.038046  0.014661  0.024005)
 90:   3078.92   0.008950   45.23  0.000907  ( 0.020194  0.015582  0.016018)
 91:   3089.54   0.005128   25.91  0.000518  (-0.011489 -0.010898 -0.016346)
 92:   3149.20   0.006624   33.48  0.000656  ( 0.003006 -0.017315 -0.018643)
 93:   3169.64   0.000927    4.68  0.000091  ( 0.001338  0.005815 -0.007461)
 94:   3172.75   0.001681    8.50  0.000165  ( 0.008136 -0.009925  0.000817)
 95:   3173.08   0.000039    0.20  0.000004  ( 0.001657 -0.000745 -0.000709)
 96:   3178.76   0.001470    7.43  0.000144  ( 0.011167 -0.002377 -0.003738)
 97:   3179.90   0.000044    0.22  0.000004  (-0.001644 -0.000755 -0.001011)
 98:   3189.22   0.003036   15.34  0.000297  ( 0.014913 -0.005053 -0.007010)
 99:   3192.38   0.004620   23.35  0.000452  (-0.004395  0.014279  0.015114)
100:   3203.20   0.004027   20.35  0.000392  (-0.012962 -0.010999 -0.010167)
101:   3203.48   0.000860    4.35  0.000084  ( 0.007412  0.004221  0.003319)

--------------------------
THERMOCHEMISTRY AT 298.15K
--------------------------

Temperature         ... 298.15 K
Pressure            ... 1.00 atm
Total Mass          ... 266.30 AMU

Throughout the following assumptions are being made:
  (1) The electronic state is orbitally nondegenerate
  (2) There are no thermally accessible electronically excited states
  (3) Hindered rotations indicated by low frequency modes are not
      treated as such but are treated as vibrations and this may
      cause some error
  (4) All equations used are the standard statistical mechanics
      equations for an ideal gas
  (5) All vibrations are strictly harmonic

freq.      34.39  E(vib)   ...       0.54
freq.      37.81  E(vib)   ...       0.54
freq.      48.59  E(vib)   ...       0.53
freq.      63.40  E(vib)   ...       0.51
freq.      93.22  E(vib)   ...       0.47
freq.      99.88  E(vib)   ...       0.46
freq.     112.98  E(vib)   ...       0.45
freq.     126.95  E(vib)   ...       0.43
freq.     204.04  E(vib)   ...       0.35
freq.     216.87  E(vib)   ...       0.34
freq.     228.73  E(vib)   ...       0.32
freq.     232.99  E(vib)   ...       0.32
freq.     241.27  E(vib)   ...       0.31
freq.     296.99  E(vib)   ...       0.27
freq.     365.74  E(vib)   ...       0.22
freq.     380.02  E(vib)   ...       0.21
freq.     410.58  E(vib)   ...       0.19
freq.     422.26  E(vib)   ...       0.18
freq.     465.83  E(vib)   ...       0.16
freq.     491.03  E(vib)   ...       0.14
freq.     510.84  E(vib)   ...       0.14
freq.     522.48  E(vib)   ...       0.13
freq.     525.74  E(vib)   ...       0.13
freq.     562.78  E(vib)   ...       0.11
freq.     584.63  E(vib)   ...       0.11
freq.     606.37  E(vib)   ...       0.10
freq.     625.05  E(vib)   ...       0.09
freq.     661.07  E(vib)   ...       0.08
freq.     703.26  E(vib)   ...       0.07
freq.     732.19  E(vib)   ...       0.06
freq.     743.33  E(vib)   ...       0.06
freq.     746.37  E(vib)   ...       0.06
freq.     776.49  E(vib)   ...       0.05
freq.     804.48  E(vib)   ...       0.05
freq.     828.10  E(vib)   ...       0.04
freq.     837.83  E(vib)   ...       0.04
freq.     864.32  E(vib)   ...       0.04
freq.     871.31  E(vib)   ...       0.04
freq.     883.85  E(vib)   ...       0.04
freq.     926.93  E(vib)   ...       0.03
freq.     971.05  E(vib)   ...       0.03
freq.     976.59  E(vib)   ...       0.03
freq.     984.11  E(vib)   ...       0.02
freq.     991.31  E(vib)   ...       0.02
freq.    1004.28  E(vib)   ...       0.02
freq.    1032.05  E(vib)   ...       0.02
freq.    1046.59  E(vib)   ...       0.02
freq.    1075.64  E(vib)   ...       0.02
freq.    1083.84  E(vib)   ...       0.02
freq.    1109.98  E(vib)   ...       0.02
freq.    1125.52  E(vib)   ...       0.01
freq.    1148.06  E(vib)   ...       0.01
freq.    1161.28  E(vib)   ...       0.01
freq.    1172.70  E(vib)   ...       0.01
freq.    1178.15  E(vib)   ...       0.01
freq.    1187.52  E(vib)   ...       0.01
freq.    1218.08  E(vib)   ...       0.01
freq.    1224.18  E(vib)   ...       0.01
freq.    1255.46  E(vib)   ...       0.01
freq.    1271.27  E(vib)   ...       0.01
freq.    1278.01  E(vib)   ...       0.01
freq.    1322.85  E(vib)   ...       0.01
freq.    1341.30  E(vib)   ...       0.01
freq.    1354.04  E(vib)   ...       0.01
freq.    1409.18  E(vib)   ...       0.00
freq.    1414.65  E(vib)   ...       0.00
freq.    1437.72  E(vib)   ...       0.00
freq.    1452.19  E(vib)   ...       0.00
freq.    1456.75  E(vib)   ...       0.00
freq.    1462.78  E(vib)   ...       0.00
freq.    1476.12  E(vib)   ...       0.00
freq.    1479.51  E(vib)   ...       0.00
freq.    1486.68  E(vib)   ...       0.00
freq.    1491.80  E(vib)   ...       0.00
freq.    1522.87  E(vib)   ...       0.00
freq.    1532.07  E(vib)   ...       0.00
freq.    1545.35  E(vib)   ...       0.00
freq.    1598.10  E(vib)   ...       0.00
freq.    1630.72  E(vib)   ...       0.00
freq.    1644.54  E(vib)   ...       0.00
freq.    1659.77  E(vib)   ...       0.00
freq.    1705.79  E(vib)   ...       0.00
freq.    3022.50  E(vib)   ...       0.00
freq.    3026.48  E(vib)   ...       0.00
freq.    3078.92  E(vib)   ...       0.00
freq.    3089.54  E(vib)   ...       0.00
freq.    3149.20  E(vib)   ...       0.00
freq.    3169.64  E(vib)   ...       0.00
freq.    3172.75  E(vib)   ...       0.00
freq.    3173.08  E(vib)   ...       0.00
freq.    3178.76  E(vib)   ...       0.00
freq.    3179.90  E(vib)   ...       0.00
freq.    3189.22  E(vib)   ...       0.00
freq.    3192.38  E(vib)   ...       0.00
freq.    3203.20  E(vib)   ...       0.00
freq.    3203.48  E(vib)   ...       0.00

------------
INNER ENERGY
------------

The inner energy is: U= E(el) + E(ZPE) + E(vib) + E(rot) + E(trans)
    E(el)   - is the total energy from the electronic structure calculation
              = E(kin-el) + E(nuc-el) + E(el-el) + E(nuc-nuc)
    E(ZPE)  - the the zero temperature vibrational energy from the frequency calculation
    E(vib)  - the the finite temperature correction to E(ZPE) due to population
              of excited vibrational states
    E(rot)  - is the rotational thermal energy
    E(trans)- is the translational thermal energy

Summary of contributions to the inner energy U:
Electronic energy                ...   -878.44036555 Eh
Zero point energy                ...      0.26846040 Eh     168.46 kcal/mol
Thermal vibrational correction   ...      0.01401595 Eh       8.80 kcal/mol
Thermal rotational correction    ...      0.00141627 Eh       0.89 kcal/mol
Thermal translational correction ...      0.00141627 Eh       0.89 kcal/mol
-----------------------------------------------------------------------
Total thermal energy                   -878.15505665 Eh

Summary of corrections to the electronic energy:
(perhaps to be used in another calculation)
Total thermal correction                  0.01684850 Eh      10.57 kcal/mol
Non-thermal (ZPE) correction              0.26846040 Eh     168.46 kcal/mol
-----------------------------------------------------------------------
Total correction                          0.28530890 Eh     179.03 kcal/mol

--------
ENTHALPY
--------

The enthalpy is H = U + kB*T
                kB is Boltzmann's constant
Total free energy                 ...   -878.15505665 Eh
Thermal Enthalpy correction       ...      0.00094421 Eh       0.59 kcal/mol
-----------------------------------------------------------------------
Total Enthalpy                    ...   -878.15411244 Eh

Note: Only C1 symmetry has been detected, increase convergence thresholds
      if your molecule has a higher symmetry. Symmetry factor of 1.0 is
      used for the rotational entropy correction.

Rotational constants in cm-1:     0.016254     0.010871     0.007094

                             ****ORCA TERMINATED NORMALLY****
TOTAL RUN TIME: 0 days 2 hours 20 minutes 22 seconds 481 msec
