                         Program Version 6.0.1  -  RELEASE   -
|  1> !XTB goat ddCOSMO(water)
|  2>
|  3> * xyz 0 1
|  4>   C   -3.29503104994019     -0.64462679992355     -0.62111652530007
|  5>   C   -2.79237472177815     -1.50068060951883     -1.60577727032567
|  6>   C   -1.43862095366715     -1.54247959835514     -1.83687828516427
|  7>   C   -2.45061618500934      0.15926339399341      0.11238788500657
|  8>   C   -1.04680532610905      0.15377522126596     -0.09029226345631
|  9>   O   -3.05622508478166      0.89231285329717      1.12820467078653
| 10>   C   -0.55504022013217     -0.73425178029305     -1.09475134937336
| 11>   C   0.85062781844231     -0.82018276258933     -1.35567818451792
| 12>   C   1.74374538881924     -0.07639820432441     -0.66465380920866
| 13>   C   -0.08331853788085      0.96449981528363      0.64184259383543
| 14>   C   1.30147762335617      0.83076289397448      0.34549521698967
| 15>   N   -0.51016293495800      1.83471722596518      1.58479684567330
| 16>   C   0.37669222165832      2.56074422451946      2.24205163462549
| 17>   C   1.75888783008372      2.49053929276249      2.02433634308264
| 18>   C   2.21635062825543      1.61844970031873      1.06701442833394
| 19>   C   -3.31500774522881      2.21857517253875      0.89646748374945
| 20>   O   -3.12148026827977      2.74382400916265     -0.18934397774336
| 21>   N   -3.81830788776568      2.82593247405035      1.98833744525102
| 22>   C   -4.10100331070348      2.13684224501750      3.24276449714838
| 23>   C   -4.30301904578004      4.19601436085567      1.88603490415782
| 24>   H   -4.00299408735696      4.61832968188490      0.93312585609252
| 25>   H   -3.88203560855312      4.79374311348616      2.69625124212385
| 26>   H   -5.39352894296766      4.22330156082644      1.96463713149768
| 27>   H   -3.46411332678318      1.26669947738301      3.35324077039836
| 28>   H   -5.14830812376476      1.82467462542653      3.29281532448293
| 29>   H   -3.90587207206067      2.82352888729878      4.06682448182409
| 30>   H   -1.02760730440550     -2.20188947486929     -2.59094928809906
| 31>   H   -4.35603997609009     -0.60121385762428     -0.41346436515040
| 32>   H   -3.46994827584634     -2.12397898021595     -2.17462943024135
| 33>   H   1.18183432471646     -1.50580128867441     -2.12585633980196
| 34>   H   2.80569579100891     -0.15047460264524     -0.86549674162256
| 35>   H   -0.01855386365011      3.24462873312166      2.98680055703308
| 36>   H   2.43427901880762      3.11221699829295      2.59660253336206
| 37>   H   3.27457420834492      1.52644199830734      0.85323598454994
| 38> *
| 39>
| 40>                          ****END OF INPUT****
FINAL SINGLE POINT ENERGY       -55.435852501250
FINAL SINGLE POINT ENERGY       -55.438977944700
FINAL SINGLE POINT ENERGY       -55.439576274490
FINAL SINGLE POINT ENERGY       -55.440224148230
FINAL SINGLE POINT ENERGY       -55.440326017990
FINAL SINGLE POINT ENERGY       -55.440607853630
FINAL SINGLE POINT ENERGY       -55.440711898390
FINAL SINGLE POINT ENERGY       -55.440757457380
FINAL SINGLE POINT ENERGY       -55.440775064620
FINAL SINGLE POINT ENERGY       -55.440799316120
FINAL SINGLE POINT ENERGY       -55.440840224040
FINAL SINGLE POINT ENERGY       -55.440843536250
FINAL SINGLE POINT ENERGY       -55.440850419540
FINAL SINGLE POINT ENERGY       -55.440853300290
FINAL SINGLE POINT ENERGY       -55.440853538990
FINAL SINGLE POINT ENERGY       -55.440858888050
FINAL SINGLE POINT ENERGY       -55.440859535800
FINAL SINGLE POINT ENERGY       -55.440859835320
FINAL SINGLE POINT ENERGY       -55.440860080920
                    ***********************HURRAY********************

CARTESIAN COORDINATES (ANGSTROEM)
---------------------------------
  C    -3.336253   -0.930775   -0.610476
  C    -2.746901   -1.770141   -1.553105
  C    -1.402887   -1.673696   -1.807618
  C    -2.570589   -0.029541    0.097464
  C    -1.176107    0.051413   -0.094718
  O    -3.235592    0.769707    1.014732
  C    -0.601232   -0.766367   -1.097841
  C     0.789631   -0.653784   -1.389701
  C     1.579564    0.224519   -0.732497
  C    -0.316281    0.919265    0.668084
  C     1.051827    1.026917    0.316444
  N    -0.821031    1.593558    1.711876
  C    -0.049320    2.415061    2.381082
  C     1.295894    2.636478    2.079377
  C     1.850278    1.921508    1.046148
  C    -3.100118    2.117493    0.879036
  O    -2.679837    2.637646   -0.147383
  N    -3.583884    2.791665    1.924339
  C    -4.061999    2.172140    3.139350
  C    -3.579249    4.236889    1.921100
  H    -3.213474    4.583807    0.957212
  H    -2.926616    4.609757    2.711543
  H    -4.591666    4.607164    2.083953
  H    -3.925855    1.097557    3.083298
  H    -5.120239    2.400661    3.273918
  H    -3.501387    2.564279    3.988376
  H    -0.940941   -2.292557   -2.561010
  H    -4.398437   -0.962657   -0.424987
  H    -3.360405   -2.472791   -2.093957
  H     1.192332   -1.283981   -2.167809
  H     2.627072    0.326996   -0.973401
  H    -0.526025    2.921552    3.209372
  H     1.874900    3.338259    2.657151
  H     2.892974    2.029840    0.785028

FINAL SINGLE POINT ENERGY       -55.440860052510

DIPOLE MOMENT
-------------
                                X             Y             Z
Total Dipole Moment    :      0.45100      -0.25800       1.17200
                        -----------------------------------------
Magnitude (a.u.)       :      1.28201
Magnitude (Debye)      :      3.25861

                             ****ORCA TERMINATED NORMALLY****
TOTAL RUN TIME: 0 days 7 hours 3 minutes 20 seconds 893 msec
