                         Program Version 5.0.4 -  RELEASE  -
|  1> ! B3LYP/G FREQ Def2-TZVP(-f) Def2-TZVP/C Def2/J RIJCOSX TightSCF CPCM(Water) AllPop SOSCF
|  2> %maxcore 3000
|  3> %tddft
|  4>     NRoots 5
|  5>     IRoot 1
|  6> end
|  7>
|  8> * xyz 0 1
|  9>   C   -3.69174787238085     -0.58908896744046      0.13540530849715
| 10>   C   -3.68760014353309     -1.97875154088168      0.08937314615279
| 11>   C   -2.49861346784635     -2.67546178313917      0.04403302727502
| 12>   C   -1.23705544175227     -1.99145022799497      0.04012866383990
| 13>   C   -1.20939840892525     -0.58071777965229      0.08531631335520
| 14>   C   -2.48018962950610      0.16556567250271      0.13771219229158
| 15>   O   -2.51459142947726      1.43439125870591      0.18479300708254
| 16>   C   0.07037066125595      0.06581823150845      0.07702813847848
| 17>   C   1.26442235179003     -0.67273630994607      0.02667026133544
| 18>   C   1.18593050618536     -2.08248591719822     -0.01584950610877
| 19>   C   -0.02364902022328     -2.72931387343002     -0.00969786751789
| 20>   N   0.14517372864065      1.43493965081232      0.11736937955001
| 21>   C   1.32347682177721      2.11827755211548      0.11237562027351
| 22>   C   2.52099444714249      1.41999381854147      0.06379241923714
| 23>   C   2.52007880366334      0.03963071421974      0.02041597847553
| 24>   H   -0.75780855618780      1.91238199021105      0.15452032183829
| 25>   H   -4.61836615035312     -0.03110966254780      0.17291001609721
| 26>   H   -4.62628001278995     -2.51897989505219      0.08985945755849
| 27>   H   -2.49569797621784     -3.75725852456921      0.00947518746405
| 28>   H   -0.07143282095122     -3.80986286583709     -0.04298772402020
| 29>   H   2.10790867413311     -2.65008124147039     -0.05399025977406
| 30>   H   3.44442429823905     -0.51983265270061     -0.01853026383700
| 31>   H   1.25435503830621      3.19419848330363      0.14689059416893
| 32>   H   3.44795559901095      1.97726386993943      0.06026658828666
| 33> *
| 34>
| 35>
| 36>
| 37>                          ****END OF INPUT****

CARTESIAN COORDINATES (ANGSTROEM)
---------------------------------
  C     -3.691748   -0.589089    0.135405
  C     -3.687600   -1.978752    0.089373
  C     -2.498613   -2.675462    0.044033
  C     -1.237055   -1.991450    0.040129
  C     -1.209398   -0.580718    0.085316
  C     -2.480190    0.165566    0.137712
  O     -2.514591    1.434391    0.184793
  C      0.070371    0.065818    0.077028
  C      1.264422   -0.672736    0.026670
  C      1.185931   -2.082486   -0.015850
  C     -0.023649   -2.729314   -0.009698
  N      0.145174    1.434940    0.117369
  C      1.323477    2.118278    0.112376
  C      2.520994    1.419994    0.063792
  C      2.520079    0.039631    0.020416
  H     -0.757809    1.912382    0.154520
  H     -4.618366   -0.031110    0.172910
  H     -4.626280   -2.518980    0.089859
  H     -2.495698   -3.757259    0.009475
  H     -0.071433   -3.809863   -0.042988
  H      2.107909   -2.650081   -0.053990
  H      3.444424   -0.519833   -0.018530
  H      1.254355    3.194198    0.146891
  H      3.447956    1.977264    0.060267

 Total Charge           Charge          ....    0
 Multiplicity           Mult            ....    1
 Number of Electrons    NEL             ....  102
 Basis Dimension        Dim             ....  414

ORBITAL ENERGIES
----------------

  NO   OCC          E(Eh)            E(eV)
   0   2.0000     -19.073679      -519.0212
   1   2.0000     -14.400838      -391.8667
   2   2.0000     -10.251567      -278.9593
   3   2.0000     -10.251346      -278.9533
   4   2.0000     -10.229140      -278.3491
   5   2.0000     -10.217886      -278.0428
   6   2.0000     -10.213566      -277.9252
   7   2.0000     -10.201796      -277.6050
   8   2.0000     -10.192597      -277.3547
   9   2.0000     -10.189190      -277.2620
  10   2.0000     -10.187214      -277.2082
  11   2.0000     -10.186076      -277.1772
  12   2.0000     -10.173601      -276.8378
  13   2.0000     -10.161640      -276.5123
  14   2.0000     -10.155737      -276.3517
  15   2.0000      -1.013456       -27.5776
  16   2.0000      -0.989791       -26.9336
  17   2.0000      -0.879552       -23.9338
  18   2.0000      -0.842064       -22.9137
  19   2.0000      -0.818667       -22.2771
  20   2.0000      -0.780497       -21.2384
  21   2.0000      -0.751895       -20.4601
  22   2.0000      -0.712497       -19.3880
  23   2.0000      -0.677062       -18.4238
  24   2.0000      -0.661522       -18.0009
  25   2.0000      -0.640319       -17.4240
  26   2.0000      -0.599062       -16.3013
  27   2.0000      -0.568349       -15.4656
  28   2.0000      -0.546617       -14.8742
  29   2.0000      -0.527938       -14.3659
  30   2.0000      -0.515111       -14.0169
  31   2.0000      -0.490521       -13.3477
  32   2.0000      -0.483692       -13.1619
  33   2.0000      -0.466493       -12.6939
  34   2.0000      -0.456828       -12.4309
  35   2.0000      -0.446791       -12.1578
  36   2.0000      -0.435390       -11.8476
  37   2.0000      -0.421479       -11.4690
  38   2.0000      -0.404451       -11.0057
  39   2.0000      -0.397198       -10.8083
  40   2.0000      -0.394485       -10.7345
  41   2.0000      -0.385197       -10.4817
  42   2.0000      -0.365335        -9.9413
  43   2.0000      -0.356499        -9.7008
  44   2.0000      -0.353047        -9.6069
  45   2.0000      -0.329111        -8.9556
  46   2.0000      -0.317671        -8.6443
  47   2.0000      -0.272121        -7.4048
  48   2.0000      -0.251822        -6.8524
  49   2.0000      -0.244006        -6.6397
  50   2.0000      -0.189337        -5.1521
  51   0.0000      -0.091420        -2.4877
  52   0.0000      -0.050681        -1.3791
  53   0.0000      -0.020846        -0.5672
  54   0.0000       0.021332         0.5805
  55   0.0000       0.051527         1.4021

MULLIKEN ATOMIC CHARGES
-----------------------
   0 C :   -0.240862
   1 C :   -0.062158
   2 C :   -0.290530
   3 C :    0.289394
   4 C :    0.018603
   5 C :    0.317171
   6 O :   -0.735486
   7 C :    0.046464
   8 C :    0.323092
   9 C :   -0.248975
  10 C :   -0.236772
  11 N :   -0.204509
  12 C :    0.093618
  13 C :   -0.044179
  14 C :   -0.186871
  15 H :    0.215321
  16 H :    0.068990
  17 H :    0.101302
  18 H :    0.101044
  19 H :    0.111698
  20 H :    0.109212
  21 H :    0.142624
  22 H :    0.172998
  23 H :    0.138811
Sum of atomic charges:    0.0000000

LOEWDIN ATOMIC CHARGES
----------------------
   0 C :   -0.154372
   1 C :   -0.147184
   2 C :   -0.149882
   3 C :   -0.098656
   4 C :   -0.055558
   5 C :   -0.249482
   6 O :   -0.212877
   7 C :   -0.036366
   8 C :   -0.084096
   9 C :   -0.095381
  10 C :   -0.073486
  11 N :    0.201268
  12 C :   -0.056391
  13 C :   -0.125652
  14 C :   -0.020750
  15 H :    0.198192
  16 H :    0.129116
  17 H :    0.138242
  18 H :    0.134765
  19 H :    0.147462
  20 H :    0.148205
  21 H :    0.154506
  22 H :    0.154219
  23 H :    0.154158

  Mayer bond orders larger than 0.100000
B(  0-C ,  1-C ) :   1.4088 B(  0-C ,  5-C ) :   1.3833 B(  0-C , 16-H ) :   1.0054
B(  1-C ,  2-C ) :   1.3701 B(  1-C , 17-H ) :   0.9902 B(  2-C ,  3-C ) :   1.2668
B(  2-C , 18-H ) :   0.9932 B(  3-C ,  4-C ) :   1.3014 B(  3-C , 10-C ) :   1.1562
B(  4-C ,  5-C ) :   0.9874 B(  4-C ,  7-C ) :   1.1002 B(  5-C ,  6-O ) :   1.5158
B(  6-O , 15-H ) :   0.1576 B(  7-C ,  8-C ) :   1.3246 B(  7-C , 11-N ) :   1.2684
B(  8-C ,  9-C ) :   1.1495 B(  8-C , 14-C ) :   1.2920 B(  9-C , 10-C ) :   1.4870
B(  9-C , 20-H ) :   1.0193 B( 10-C , 19-H ) :   1.0109 B( 11-N , 12-C ) :   1.3120
B( 11-N , 15-H ) :   0.8165 B( 12-C , 13-C ) :   1.4066 B( 12-C , 22-H ) :   0.9443
B( 13-C , 14-C ) :   1.4219 B( 13-C , 23-H ) :   0.9632 B( 14-C , 21-H ) :   0.9589

-----------------------------------------------------------------------------
         ABSORPTION SPECTRUM VIA TRANSITION ELECTRIC DIPOLE MOMENTS
-----------------------------------------------------------------------------
State   Energy    Wavelength  fosc         T2        TX        TY        TZ
        (cm-1)      (nm)                 (au**2)    (au)      (au)      (au)
-----------------------------------------------------------------------------
   1   19674.1    508.3   0.258354802   4.32311  -1.90713  -0.82808   0.01564
   2   25610.0    390.5   0.055883662   0.71838   0.75235  -0.38916  -0.02996
   3   26870.0    372.2   0.000003582   0.00004   0.00652   0.00063  -0.00102
   4   30253.6    330.5   0.031329157   0.34092   0.42700  -0.39760  -0.02237
   5   32986.3    303.2   0.104433047   1.04227   1.00940   0.15210  -0.01594

FINAL SINGLE POINT ENERGY      -630.935412177613

DIPOLE MOMENT
-------------
                                X             Y             Z
Electronic contribution:      1.40655       2.45318       0.05430
Nuclear contribution   :      2.64378      -2.44371      -0.15245
                        -----------------------------------------
Total Dipole Moment    :      4.05033       0.00947      -0.09816
                        -----------------------------------------
Magnitude (a.u.)       :      4.05153
Magnitude (Debye)      :     10.29818

VIBRATIONAL FREQUENCIES
-----------------------

Scaling factor for frequencies =  1.000000000 (already applied!)

   0:         0.00 cm**-1
   1:         0.00 cm**-1
   2:         0.00 cm**-1
   3:         0.00 cm**-1
   4:         0.00 cm**-1
   5:         0.00 cm**-1
   6:        26.65 cm**-1
   7:        96.50 cm**-1
   8:       155.39 cm**-1
   9:       191.80 cm**-1
  10:       234.88 cm**-1
  11:       273.73 cm**-1
  12:       346.05 cm**-1
  13:       375.54 cm**-1
  14:       401.70 cm**-1
  15:       467.05 cm**-1
  16:       487.51 cm**-1
  17:       491.33 cm**-1
  18:       532.63 cm**-1
  19:       543.23 cm**-1
  20:       549.12 cm**-1
  21:       568.95 cm**-1
  22:       634.99 cm**-1
  23:       672.01 cm**-1
  24:       680.96 cm**-1
  25:       698.50 cm**-1
  26:       701.32 cm**-1
  27:       735.24 cm**-1
  28:       764.39 cm**-1
  29:       813.12 cm**-1
  30:       815.32 cm**-1
  31:       820.50 cm**-1
  32:       852.19 cm**-1
  33:       857.26 cm**-1
  34:       866.80 cm**-1
  35:       940.48 cm**-1
  36:       950.89 cm**-1
  37:       963.78 cm**-1
  38:      1002.52 cm**-1
  39:      1026.72 cm**-1
  40:      1060.82 cm**-1
  41:      1093.40 cm**-1
  42:      1119.96 cm**-1
  43:      1161.82 cm**-1
  44:      1178.39 cm**-1
  45:      1189.38 cm**-1
  46:      1194.71 cm**-1
  47:      1232.15 cm**-1
  48:      1266.58 cm**-1
  49:      1289.67 cm**-1
  50:      1319.36 cm**-1
  51:      1342.70 cm**-1
  52:      1359.60 cm**-1
  53:      1413.18 cm**-1
  54:      1433.68 cm**-1
  55:      1443.99 cm**-1
  56:      1478.78 cm**-1
  57:      1493.96 cm**-1
  58:      1520.18 cm**-1
  59:      1559.51 cm**-1
  60:      1574.39 cm**-1
  61:      1580.52 cm**-1
  62:      1669.28 cm**-1
  63:      3175.92 cm**-1
  64:      3176.73 cm**-1
  65:      3189.90 cm**-1
  66:      3193.21 cm**-1
  67:      3196.41 cm**-1
  68:      3197.90 cm**-1
  69:      3207.41 cm**-1
  70:      3239.47 cm**-1
  71:      3354.10 cm**-1

IR SPECTRUM
-----------

 Mode   freq       eps      Int      T**2         TX        TY        TZ
       cm**-1   L/(mol*cm) km/mol    a.u.
----------------------------------------------------------------------------
  6:     26.65   0.002401   12.13  0.028112  ( 0.003746 -0.002165  0.167610)
  7:     96.50   0.000097    0.49  0.000312  ( 0.000795  0.002436 -0.017482)
  8:    155.39   0.000043    0.22  0.000087  ( 0.001368  0.000532  0.009186)
  9:    191.80   0.000626    3.16  0.001018  (-0.001425  0.000995 -0.031854)
 10:    234.88   0.006764   34.18  0.008986  (-0.094340 -0.009042  0.002069)
 11:    273.73   0.000610    3.08  0.000696  (-0.000052  0.000492 -0.026375)
 12:    346.05   0.000772    3.90  0.000696  (-0.000346  0.000203 -0.026378)
 13:    375.54   0.001865    9.42  0.001550  (-0.021240  0.033113  0.001427)
 14:    401.70   0.003694   18.67  0.002870  (-0.030879 -0.043772 -0.000362)
 15:    467.05   0.000004    0.02  0.000003  (-0.001042 -0.000355 -0.001235)
 16:    487.51   0.001276    6.45  0.000817  (-0.000135  0.028565  0.000748)
 17:    491.33   0.001362    6.88  0.000865  (-0.001007 -0.000413 -0.029395)
 18:    532.63   0.000561    2.83  0.000328  ( 0.017720 -0.003755 -0.000576)
 19:    543.23   0.000638    3.22  0.000367  (-0.001319  0.000265 -0.019098)
 20:    549.12   0.002863   14.47  0.001627  (-0.040305  0.000088  0.001567)
 21:    568.95   0.001113    5.62  0.000611  ( 0.000630 -0.024676 -0.001095)
 22:    634.99   0.002563   12.95  0.001260  ( 0.000308 -0.000189  0.035491)
 23:    672.01   0.030826  155.78  0.014315  (-0.003047  0.003136 -0.119564)
 24:    680.96   0.000091    0.46  0.000042  ( 0.000724  0.006212  0.001648)
 25:    698.50   0.000620    3.13  0.000277  (-0.000788  0.001781 -0.016528)
 26:    701.32   0.001207    6.10  0.000537  ( 0.015731 -0.016971 -0.001202)
 27:    735.24   0.001888    9.54  0.000801  ( 0.000393 -0.000748  0.028296)
 28:    764.39   0.004313   21.80  0.001761  ( 0.001007 -0.000239  0.041949)
 29:    813.12   0.007450   37.65  0.002859  ( 0.000221  0.000755 -0.053467)
 30:    815.32   0.001372    6.93  0.000525  (-0.020773  0.009170 -0.003064)
 31:    820.50   0.006137   31.01  0.002334  (-0.000875  0.001403 -0.048284)
 32:    852.19   0.014047   70.99  0.005144  (-0.000725  0.002367 -0.071677)
 33:    857.26   0.001179    5.96  0.000429  (-0.009476 -0.017649 -0.005289)
 34:    866.80   0.002114   10.68  0.000761  ( 0.001096 -0.000675  0.027558)
 35:    940.48   0.003031   15.32  0.001006  ( 0.000912 -0.001360  0.031673)
 36:    950.89   0.000738    3.73  0.000242  (-0.000197  0.000328 -0.015554)
 37:    963.78   0.000008    0.04  0.000003  (-0.000340 -0.000166 -0.001571)
 38:   1002.52   0.001728    8.73  0.000538  ( 0.005780  0.022452  0.000593)
 39:   1026.72   0.011975   60.52  0.003640  ( 0.034054  0.049790  0.001058)
 40:   1060.82   0.003089   15.61  0.000909  ( 0.023267 -0.019140 -0.001021)
 41:   1093.40   0.004556   23.02  0.001300  (-0.030276  0.019546  0.001265)
 42:   1119.96   0.002448   12.37  0.000682  ( 0.014858  0.021474  0.000384)
 43:   1161.82   0.002254   11.39  0.000605  (-0.022643 -0.009626  0.000149)
 44:   1178.39   0.013500   68.22  0.003575  ( 0.029926 -0.051710 -0.002389)
 45:   1189.38   0.013110   66.25  0.003440  ( 0.040494 -0.042363 -0.002328)
 46:   1194.71   0.007788   39.36  0.002034  ( 0.044678  0.006116 -0.000808)
 47:   1232.15   0.009458   47.80  0.002395  ( 0.040118  0.028035  0.000048)
 48:   1266.58   0.001477    7.46  0.000364  ( 0.005304 -0.018303 -0.000827)
 49:   1289.67   0.015094   76.28  0.003652  (-0.029996 -0.052450 -0.001276)
 50:   1319.36   0.102307  517.02  0.024198  (-0.154428 -0.018511  0.002808)
 51:   1342.70   0.056903  287.56  0.013225  (-0.077035 -0.085380 -0.000894)
 52:   1359.60   0.011493   58.08  0.002638  (-0.017137  0.048369  0.002135)
 53:   1413.18   0.034346  173.57  0.007584  (-0.007693  0.086688  0.003220)
 54:   1433.68   0.085139  430.26  0.018532  ( 0.064098 -0.119960 -0.005736)
 55:   1443.99   0.019837  100.25  0.004287  (-0.012592 -0.064219 -0.002059)
 56:   1478.78   0.026550  134.17  0.005603  ( 0.074390 -0.008025 -0.002126)
 57:   1493.96   0.016781   84.80  0.003505  ( 0.055097 -0.021566 -0.002091)
 58:   1520.18   0.006122   30.94  0.001257  ( 0.035393 -0.001860 -0.000715)
 59:   1559.51   0.020424  103.21  0.004087  (-0.063460  0.007454  0.002060)
 60:   1574.39   0.037509  189.55  0.007435  (-0.024755 -0.082560 -0.002383)
 61:   1580.52   0.044689  225.84  0.008823  (-0.080479 -0.048441  0.000216)
 62:   1669.28   0.021923  110.79  0.004098  (-0.060165 -0.021867  0.000579)
 63:   3175.92   0.002263   11.44  0.000222  ( 0.013434  0.006474 -0.000060)
 64:   3176.73   0.000906    4.58  0.000089  (-0.004314 -0.008389 -0.000222)
 65:   3189.90   0.001862    9.41  0.000182  ( 0.000206 -0.013487 -0.000417)
 66:   3193.21   0.006605   33.38  0.000645  (-0.015995  0.019715  0.000968)
 67:   3196.41   0.000383    1.93  0.000037  ( 0.003232 -0.005183 -0.000238)
 68:   3197.90   0.007548   38.14  0.000737  (-0.024859 -0.010886  0.000169)
 69:   3207.41   0.000014    0.07  0.000001  ( 0.000248 -0.001136 -0.000014)
 70:   3239.47   0.001885    9.52  0.000182  (-0.005149 -0.012449 -0.000258)
 71:   3354.10   0.078590  397.16  0.007312  (-0.075887  0.039281  0.003187)

--------------------------
THERMOCHEMISTRY AT 298.15K
--------------------------

Temperature         ... 298.15 K
Pressure            ... 1.00 atm
Total Mass          ... 195.22 AMU

Throughout the following assumptions are being made:
  (1) The electronic state is orbitally nondegenerate
  (2) There are no thermally accessible electronically excited states
  (3) Hindered rotations indicated by low frequency modes are not
      treated as such but are treated as vibrations and this may
      cause some error
  (4) All equations used are the standard statistical mechanics
      equations for an ideal gas
  (5) All vibrations are strictly harmonic

freq.      26.65  E(vib)   ...       0.56
freq.      96.50  E(vib)   ...       0.47
freq.     155.39  E(vib)   ...       0.40
freq.     191.80  E(vib)   ...       0.36
freq.     234.88  E(vib)   ...       0.32
freq.     273.73  E(vib)   ...       0.28
freq.     346.05  E(vib)   ...       0.23
freq.     375.54  E(vib)   ...       0.21
freq.     401.70  E(vib)   ...       0.19
freq.     467.05  E(vib)   ...       0.16
freq.     487.51  E(vib)   ...       0.15
freq.     491.33  E(vib)   ...       0.14
freq.     532.63  E(vib)   ...       0.13
freq.     543.23  E(vib)   ...       0.12
freq.     549.12  E(vib)   ...       0.12
freq.     568.95  E(vib)   ...       0.11
freq.     634.99  E(vib)   ...       0.09
freq.     672.01  E(vib)   ...       0.08
freq.     680.96  E(vib)   ...       0.08
freq.     698.50  E(vib)   ...       0.07
freq.     701.32  E(vib)   ...       0.07
freq.     735.24  E(vib)   ...       0.06
freq.     764.39  E(vib)   ...       0.06
freq.     813.12  E(vib)   ...       0.05
freq.     815.32  E(vib)   ...       0.05
freq.     820.50  E(vib)   ...       0.05
freq.     852.19  E(vib)   ...       0.04
freq.     857.26  E(vib)   ...       0.04
freq.     866.80  E(vib)   ...       0.04
freq.     940.48  E(vib)   ...       0.03
freq.     950.89  E(vib)   ...       0.03
freq.     963.78  E(vib)   ...       0.03
freq.    1002.52  E(vib)   ...       0.02
freq.    1026.72  E(vib)   ...       0.02
freq.    1060.82  E(vib)   ...       0.02
freq.    1093.40  E(vib)   ...       0.02
freq.    1119.96  E(vib)   ...       0.01
freq.    1161.82  E(vib)   ...       0.01
freq.    1178.39  E(vib)   ...       0.01
freq.    1189.38  E(vib)   ...       0.01
freq.    1194.71  E(vib)   ...       0.01
freq.    1232.15  E(vib)   ...       0.01
freq.    1266.58  E(vib)   ...       0.01
freq.    1289.67  E(vib)   ...       0.01
freq.    1319.36  E(vib)   ...       0.01
freq.    1342.70  E(vib)   ...       0.01
freq.    1359.60  E(vib)   ...       0.01
freq.    1413.18  E(vib)   ...       0.00
freq.    1433.68  E(vib)   ...       0.00
freq.    1443.99  E(vib)   ...       0.00
freq.    1478.78  E(vib)   ...       0.00
freq.    1493.96  E(vib)   ...       0.00
freq.    1520.18  E(vib)   ...       0.00
freq.    1559.51  E(vib)   ...       0.00
freq.    1574.39  E(vib)   ...       0.00
freq.    1580.52  E(vib)   ...       0.00
freq.    1669.28  E(vib)   ...       0.00
freq.    3175.92  E(vib)   ...       0.00
freq.    3176.73  E(vib)   ...       0.00
freq.    3189.90  E(vib)   ...       0.00
freq.    3193.21  E(vib)   ...       0.00
freq.    3196.41  E(vib)   ...       0.00
freq.    3197.90  E(vib)   ...       0.00
freq.    3207.41  E(vib)   ...       0.00
freq.    3239.47  E(vib)   ...       0.00
freq.    3354.10  E(vib)   ...       0.00

------------
INNER ENERGY
------------

The inner energy is: U= E(el) + E(ZPE) + E(vib) + E(rot) + E(trans)
    E(el)   - is the total energy from the electronic structure calculation
              = E(kin-el) + E(nuc-el) + E(el-el) + E(nuc-nuc)
    E(ZPE)  - the the zero temperature vibrational energy from the frequency calculation
    E(vib)  - the the finite temperature correction to E(ZPE) due to population
              of excited vibrational states
    E(rot)  - is the rotational thermal energy
    E(trans)- is the translational thermal energy

Summary of contributions to the inner energy U:
Electronic energy                ...   -630.93541218 Eh
Zero point energy                ...      0.18326974 Eh     115.00 kcal/mol
Thermal vibrational correction   ...      0.00796075 Eh       5.00 kcal/mol
Thermal rotational correction    ...      0.00141627 Eh       0.89 kcal/mol
Thermal translational correction ...      0.00141627 Eh       0.89 kcal/mol
-----------------------------------------------------------------------
Total thermal energy                   -630.74134915 Eh

Summary of corrections to the electronic energy:
(perhaps to be used in another calculation)
Total thermal correction                  0.01079329 Eh       6.77 kcal/mol
Non-thermal (ZPE) correction              0.18326974 Eh     115.00 kcal/mol
-----------------------------------------------------------------------
Total correction                          0.19406303 Eh     121.78 kcal/mol

--------
ENTHALPY
--------

The enthalpy is H = U + kB*T
                kB is Boltzmann's constant
Total free energy                 ...   -630.74134915 Eh
Thermal Enthalpy correction       ...      0.00094421 Eh       0.59 kcal/mol
-----------------------------------------------------------------------
Total Enthalpy                    ...   -630.74040494 Eh

Note: Only C1 symmetry has been detected, increase convergence thresholds
      if your molecule has a higher symmetry. Symmetry factor of 1.0 is
      used for the rotational entropy correction.

Note: Rotational entropy computed according to Herzberg
Infrared and Raman Spectra, Chapter V,1, Van Nostrand Reinhold, 1945
Point Group:  C1, Symmetry Number:   1
Rotational constants in cm-1:     0.040122     0.018214     0.012527

Vibrational entropy computed according to the QRRHO of S. Grimme
Chem.Eur.J. 2012 18 9955

-------
ENTROPY
-------

The entropy contributions are T*S = T*(S(el)+S(vib)+S(rot)+S(trans))
     S(el)   - electronic entropy
     S(vib)  - vibrational entropy
     S(rot)  - rotational entropy
     S(trans)- translational entropy
The entropies will be listed as multiplied by the temperature to get
units of energy

Electronic entropy                ...      0.00000000 Eh      0.00 kcal/mol
Vibrational entropy               ...      0.01307956 Eh      8.21 kcal/mol
Rotational entropy                ...      0.01498766 Eh      9.40 kcal/mol
Translational entropy             ...      0.01981867 Eh     12.44 kcal/mol
-----------------------------------------------------------------------
Final entropy term                ...      0.04788590 Eh     30.05 kcal/mol

In case the symmetry of your molecule has not been determined correctly

                             ****ORCA TERMINATED NORMALLY****
TOTAL RUN TIME: 1 days 13 hours 18 minutes 29 seconds 436 msec
