                         Program Version 5.0.1 -  RELEASE  -
|  1> ## avogadro generated ORCA input file
|  2> # Basic Mode
|  3> #
|  4> ! B3LYP/G OPT Freq Def2-TZVP(-f) Def2-TZVP/C Def2/J RIJCOSX TightSCF CPCM(Water) AllPop SOSCF
|  5> %maxcore 3000
|  6>
|  7> %scf
|  8>        MaxIter 125
|  9>        CNVDIIS 1
| 10>        CNVSOSCF 1
| 11> end
| 12>
| 13> %tddft
| 14>     NRoots 1
| 15>     IRoot 1
| 16> end
| 17>
| 18> * xyz 1 1
| 19>    C       -2.88959       -1.04091        1.72226
| 20>    C       -2.16484       -2.23075        1.86439
| 21>    C       -0.89291       -2.32473        1.34897
| 22>    C       -2.30245        0.06749        1.16090
| 23>    C       -0.94908        0.05249        0.74974
| 24>    O       -3.11253        1.18142        0.96824
| 25>    C       -0.28618       -1.21214        0.73894
| 26>    C        0.93292       -1.37264        0.00710
| 27>    C        1.42029       -0.36819       -0.75681
| 28>    C       -0.23295        1.17308        0.21012
| 29>    C        0.84214        0.93687       -0.68203
| 30>    N       -0.52593        2.49379        0.52205
| 31>    C       -0.05974        3.49483       -0.26113
| 32>    C        0.79695        3.26568       -1.31669
| 33>    C        1.32310        1.99765       -1.46127
| 34>    C       -3.67861        1.30890       -0.29737
| 35>    O       -3.10975        0.90640       -1.29696
| 36>    N       -4.85429        1.95521       -0.26298
| 37>    C       -5.51185        2.27438       -1.52689
| 38>    C       -5.66074        2.16381        0.93689
| 39>    H       -5.12558        1.83645        1.81944
| 40>    H       -6.59115        1.59745        0.85067
| 41>    H       -5.90820        3.22189        1.03471
| 42>    H       -6.26333        1.52004       -1.77468
| 43>    H       -4.77667        2.32201       -2.32367
| 44>    H       -6.00500        3.24133       -1.42911
| 45>    H       -0.35745       -3.26505        1.36669
| 46>    H       -3.92687       -0.98510        2.02392
| 47>    H       -2.63334       -3.08957        2.32665
| 48>    H        1.40625       -2.34597        0.01055
| 49>    H        2.27254       -0.51273       -1.40760
| 50>    H       -0.34522        4.49514        0.02782
| 51>    H        1.11586        4.09322       -1.93253
| 52>    H        2.11236        1.80625       -2.17754
| 53>    P       -0.83197        3.03362        2.23652
| 54>    O       -1.34887        1.94754        3.06478
| 55>    O       -1.63562        4.35240        2.04149
| 56>    O        0.57257        3.62730        2.60091
| 57>    C       -3.10898        4.44482        2.03067
| 58>    C        1.65292        2.79926        3.17177
| 59>    C       -3.48565        5.82785        2.49668
| 60>    H       -3.49963        3.67068        2.68642
| 61>    H       -3.42558        4.25782        1.00707
| 62>    H       -3.14777        6.00289        3.51834
| 63>    H       -4.57313        5.91967        2.47121
| 64>    H       -3.06135        6.59065        1.84312
| 65>    C        2.73595        3.73202        3.65170
| 66>    H        2.00988        2.13398        2.38652
| 67>    H        1.22908        2.21220        3.98400
| 68>    H        3.13500        4.32580        2.82885
| 69>    H        3.54819        3.13730        4.07360
| 70>    H        2.36049        4.40126        4.42641
| 71>
| 72>
| 73> *
| 74>
| 75>
| 76>                          ****END OF INPUT****
 Total Charge           Charge          ....    1
 Multiplicity           Mult            ....    1
 Number of Electrons    NEL             ....  212
FINAL SINGLE POINT ENERGY     -1603.899921410589
FINAL SINGLE POINT ENERGY     -1603.907348624364
FINAL SINGLE POINT ENERGY     -1603.910816488112
FINAL SINGLE POINT ENERGY     -1603.912103206093
FINAL SINGLE POINT ENERGY     -1603.913042745026
FINAL SINGLE POINT ENERGY     -1603.913395715724
FINAL SINGLE POINT ENERGY     -1603.913653320364
FINAL SINGLE POINT ENERGY     -1603.913853337039
FINAL SINGLE POINT ENERGY     -1603.913938162817
FINAL SINGLE POINT ENERGY     -1603.914013183008
FINAL SINGLE POINT ENERGY     -1603.914035285493
FINAL SINGLE POINT ENERGY     -1603.914066752247
FINAL SINGLE POINT ENERGY     -1603.914101478035
FINAL SINGLE POINT ENERGY     -1603.914115332231
FINAL SINGLE POINT ENERGY     -1603.914125200708
FINAL SINGLE POINT ENERGY     -1603.914126277167
FINAL SINGLE POINT ENERGY     -1603.914127323862
                    ***********************HURRAY********************

CARTESIAN COORDINATES (ANGSTROEM)
---------------------------------
  C     -2.814956   -1.242656    1.888647
  C     -2.029343   -2.383459    2.022071
  C     -0.790889   -2.397291    1.423471
  C     -2.339654   -0.104606    1.211254
  C     -1.006125   -0.012679    0.756752
  O     -3.286182    0.844279    0.998389
  C     -0.275664   -1.236936    0.756483
  C      0.943826   -1.321650    0.064306
  C      1.412570   -0.236247   -0.642689
  C     -0.368438    1.156421    0.235405
  C      0.765221    1.028037   -0.572311
  N     -0.857215    2.468776    0.518813
  C     -0.534279    3.462037   -0.421981
  C      0.481294    3.302566   -1.325933
  C      1.233386    2.130571   -1.338993
  C     -3.603441    1.250042   -0.307004
  O     -2.946159    0.910627   -1.265653
  N     -4.700982    2.022743   -0.310679
  C     -5.197183    2.500503   -1.598615
  C     -5.606648    2.205837    0.821879
  H     -5.158910    1.848026    1.739843
  H     -6.537553    1.665654    0.633665
  H     -5.835244    3.267074    0.922403
  H     -5.995560    1.849991   -1.965156
  H     -4.388439    2.519557   -2.321437
  H     -5.595805    3.505184   -1.464291
  H     -0.172436   -3.285013    1.446644
  H     -3.833014   -1.218015    2.253371
  H     -2.409575   -3.251528    2.540950
  H      1.482775   -2.259536    0.052057
  H      2.306815   -0.324803   -1.246590
  H     -1.089474    4.382566   -0.334286
  H      0.700638    4.115646   -2.004370
  H      2.112067    2.021652   -1.957030
  P     -0.882512    3.012486    2.176081
  O     -1.399064    1.974878    3.078914
  O     -1.624674    4.394966    2.099229
  O      0.577258    3.542642    2.473874
  C     -3.087763    4.514187    2.086965
  C      1.599292    2.688623    3.091012
  C     -3.446012    5.898395    2.568388
  H     -3.500869    3.742532    2.734129
  H     -3.417290    4.345134    1.062866
  H     -3.105231    6.056016    3.592178
  H     -4.531482    6.010816    2.543976
  H     -3.006769    6.661728    1.925111
  C      2.749782    3.571270    3.508859
  H      1.911084    1.948186    2.354896
  H      1.149474    2.181266    3.942666
  H      3.181642    4.085359    2.649461
  H      3.524280    2.950879    3.963733
  H      2.427123    4.312333    4.241122

 Multiplicity           Mult            ....    1
 Number of Electrons    NEL             ....  212
 Basis Dimension        Dim             ....  822

ORBITAL ENERGIES
----------------

  NO   OCC          E(Eh)            E(eV)
   0   2.0000     -77.218931     -2101.2339
   1   2.0000     -19.188935      -522.1575
   2   2.0000     -19.184502      -522.0368
   3   2.0000     -19.182751      -521.9892
   4   2.0000     -19.118545      -520.2421
   5   2.0000     -19.117733      -520.2200
   6   2.0000     -14.426872      -392.5751
   7   2.0000     -14.365309      -390.8999
   8   2.0000     -10.335716      -281.2491
   9   2.0000     -10.282229      -279.7937
  10   2.0000     -10.277577      -279.6671
  11   2.0000     -10.268247      -279.4132
  12   2.0000     -10.248692      -278.8811
  13   2.0000     -10.243966      -278.7525
  14   2.0000     -10.242498      -278.7125
  15   2.0000     -10.233841      -278.4770
  16   2.0000     -10.224407      -278.2203
  17   2.0000     -10.222371      -278.1648
  18   2.0000     -10.218434      -278.0577
  19   2.0000     -10.204828      -277.6875
  20   2.0000     -10.203623      -277.6547
  21   2.0000     -10.203264      -277.6449
  22   2.0000     -10.202083      -277.6128
  23   2.0000     -10.198388      -277.5123
  24   2.0000     -10.194785      -277.4142
  25   2.0000     -10.194685      -277.4115
  26   2.0000     -10.169440      -276.7245
  27   2.0000     -10.169097      -276.7152
  28   2.0000      -6.686085      -181.9376
  29   2.0000      -4.848963      -131.9470
  30   2.0000      -4.847947      -131.9193
  31   2.0000      -4.846950      -131.8922
  32   2.0000      -1.131242       -30.7827
  33   2.0000      -1.114560       -30.3287
  34   2.0000      -1.059441       -28.8289
  35   2.0000      -1.046057       -28.4646
  36   2.0000      -1.020019       -27.7561
  37   2.0000      -0.996802       -27.1244
  38   2.0000      -0.960066       -26.1247
  39   2.0000      -0.908571       -24.7235
  40   2.0000      -0.872697       -23.7473
  41   2.0000      -0.844671       -22.9847
  42   2.0000      -0.810331       -22.0502
  43   2.0000      -0.792968       -21.5777
  44   2.0000      -0.782437       -21.2912
  45   2.0000      -0.770930       -20.9781
  46   2.0000      -0.763379       -20.7726
  47   2.0000      -0.729298       -19.8452
  48   2.0000      -0.722008       -19.6468
  49   2.0000      -0.706563       -19.2266
  50   2.0000      -0.683134       -18.5890
  51   2.0000      -0.671679       -18.2773
  52   2.0000      -0.659467       -17.9450
  53   2.0000      -0.643826       -17.5194
  54   2.0000      -0.632312       -17.2061
  55   2.0000      -0.617396       -16.8002
  56   2.0000      -0.598266       -16.2796
  57   2.0000      -0.576090       -15.6762
  58   2.0000      -0.562784       -15.3141
  59   2.0000      -0.550641       -14.9837
  60   2.0000      -0.549469       -14.9518
  61   2.0000      -0.544327       -14.8119
  62   2.0000      -0.540507       -14.7080
  63   2.0000      -0.514540       -14.0013
  64   2.0000      -0.513249       -13.9662
  65   2.0000      -0.508063       -13.8251
  66   2.0000      -0.500104       -13.6085
  67   2.0000      -0.494538       -13.4571
  68   2.0000      -0.493336       -13.4244
  69   2.0000      -0.487742       -13.2721
  70   2.0000      -0.472962       -12.8700
  71   2.0000      -0.470171       -12.7940
  72   2.0000      -0.461865       -12.5680
  73   2.0000      -0.456915       -12.4333
  74   2.0000      -0.454467       -12.3667
  75   2.0000      -0.449999       -12.2451
  76   2.0000      -0.440815       -11.9952
  77   2.0000      -0.438615       -11.9353
  78   2.0000      -0.432379       -11.7656
  79   2.0000      -0.423061       -11.5121
  80   2.0000      -0.417888       -11.3713
  81   2.0000      -0.413895       -11.2627
  82   2.0000      -0.407940       -11.1006
  83   2.0000      -0.406050       -11.0492
  84   2.0000      -0.400817       -10.9068
  85   2.0000      -0.399316       -10.8660
  86   2.0000      -0.398126       -10.8336
  87   2.0000      -0.392945       -10.6926
  88   2.0000      -0.390967       -10.6388
  89   2.0000      -0.388386       -10.5685
  90   2.0000      -0.384781       -10.4704
  91   2.0000      -0.378241       -10.2924
  92   2.0000      -0.373506       -10.1636
  93   2.0000      -0.367174        -9.9913
  94   2.0000      -0.357647        -9.7321
  95   2.0000      -0.350279        -9.5316
  96   2.0000      -0.344322        -9.3695
  97   2.0000      -0.338693        -9.2163
  98   2.0000      -0.334108        -9.0915
  99   2.0000      -0.329284        -8.9603
 100   2.0000      -0.324483        -8.8296
 101   2.0000      -0.306045        -8.3279
 102   2.0000      -0.299713        -8.1556
 103   2.0000      -0.275919        -7.5081
 104   2.0000      -0.264808        -7.2058
 105   2.0000      -0.238529        -6.4907
 106   0.0000      -0.141225        -3.8429
 107   0.0000      -0.083889        -2.2827
 108   0.0000      -0.045510        -1.2384
 109   0.0000      -0.018658        -0.5077
 110   0.0000       0.015332         0.4172

MULLIKEN ATOMIC CHARGES
-----------------------
   0 C :   -0.189245
   1 C :   -0.079784
   2 C :   -0.201902
   3 C :    0.336197
   4 C :    0.154297
   5 O :   -0.510733
   6 C :    0.167230
   7 C :   -0.163212
   8 C :   -0.266320
   9 C :    0.025346
  10 C :    0.344456
  11 N :   -0.295881
  12 C :    0.034922
  13 C :   -0.006687
  14 C :   -0.132029
  15 C :    0.734925
  16 O :   -0.610651
  17 N :   -0.236068
  18 C :   -0.250450
  19 C :   -0.283875
  20 H :    0.162005
  21 H :    0.148019
  22 H :    0.153764
  23 H :    0.141381
  24 H :    0.148050
  25 H :    0.142715
  26 H :    0.125281
  27 H :    0.130968
  28 H :    0.124939
  29 H :    0.125374
  30 H :    0.125967
  31 H :    0.195146
  32 H :    0.150395
  33 H :    0.166290
  34 P :    1.656062
  35 O :   -0.793148
  36 O :   -0.537665
  37 O :   -0.534413
  38 C :   -0.029501
  39 C :   -0.018490
  40 C :   -0.346341
  41 H :    0.135726
  42 H :    0.141385
  43 H :    0.129684
  44 H :    0.138465
  45 H :    0.130926
  46 C :   -0.351868
  47 H :    0.139151
  48 H :    0.136046
  49 H :    0.128666
  50 H :    0.135642
  51 H :    0.128842
Sum of atomic charges:    1.0000000

LOEWDIN ATOMIC CHARGES
----------------------
   0 C :   -0.079807
   1 C :   -0.101045
   2 C :   -0.076041
   3 C :   -0.122024
   4 C :   -0.036290
   5 O :    0.183234
   6 C :   -0.063790
   7 C :   -0.059100
   8 C :   -0.064867
   9 C :   -0.024888
  10 C :   -0.077847
  11 N :    0.051320
  12 C :   -0.035043
  13 C :   -0.093116
  14 C :    0.046946
  15 C :   -0.340463
  16 O :   -0.054358
  17 N :    0.083928
  18 C :   -0.211008
  19 C :   -0.218821
  20 H :    0.119225
  21 H :    0.115677
  22 H :    0.116083
  23 H :    0.114235
  24 H :    0.119644
  25 H :    0.117713
  26 H :    0.148969
  27 H :    0.150089
  28 H :    0.149206
  29 H :    0.155084
  30 H :    0.154624
  31 H :    0.161508
  32 H :    0.164473
  33 H :    0.166406
  34 P :    0.764697
  35 O :   -0.420661
  36 O :   -0.102751
  37 O :   -0.107914
  38 C :   -0.228891
  39 C :   -0.227747
  40 C :   -0.272104
  41 H :    0.122588
  42 H :    0.123413
  43 H :    0.117038
  44 H :    0.126378
  45 H :    0.117122
  46 C :   -0.274262
  47 H :    0.122881
  48 H :    0.121125
  49 H :    0.116425
  50 H :    0.126178
  51 H :    0.116624

  Mayer bond orders larger than 0.100000
B(  0-C ,  1-C ) :   1.3008 B(  0-C ,  3-C ) :   1.4588 B(  0-C , 27-H ) :   0.9858
B(  1-C ,  2-C ) :   1.4043 B(  1-C , 28-H ) :   0.9884 B(  2-C ,  6-C ) :   1.2557
B(  2-C , 26-H ) :   0.9851 B(  3-C ,  4-C ) :   1.2078 B(  3-C ,  5-O ) :   0.8144
B(  4-C ,  6-C ) :   1.2948 B(  4-C ,  9-C ) :   1.1405 B(  4-C , 11-N ) :   0.1041
B(  5-O , 15-C ) :   0.9590 B(  6-C ,  7-C ) :   1.1776 B(  7-C ,  8-C ) :   1.4707
B(  7-C , 29-H ) :   1.0004 B(  8-C , 10-C ) :   1.1182 B(  8-C , 30-H ) :   0.9990
B(  9-C , 10-C ) :   1.3144 B(  9-C , 11-N ) :   1.0304 B( 10-C , 14-C ) :   1.2896
B( 11-N , 12-C ) :   1.2659 B( 11-N , 34-P ) :   0.7268 B( 12-C , 13-C ) :   1.4564
B( 12-C , 14-C ) :   0.1091 B( 12-C , 31-H ) :   0.9398 B( 13-C , 14-C ) :   1.3388
B( 13-C , 32-H ) :   0.9637 B( 14-C , 33-H ) :   0.9524 B( 15-C , 16-O ) :   1.7984
B( 15-C , 17-N ) :   1.3478 B( 17-N , 18-C ) :   0.9371 B( 17-N , 19-C ) :   0.9317
B( 18-C , 23-H ) :   0.9623 B( 18-C , 24-H ) :   0.9627 B( 18-C , 25-H ) :   0.9607
B( 19-C , 20-H ) :   0.9599 B( 19-C , 21-H ) :   0.9529 B( 19-C , 22-H ) :   0.9641
B( 34-P , 35-O ) :   1.6942 B( 34-P , 36-O ) :   1.0774 B( 34-P , 37-O ) :   1.0739
B( 36-O , 38-C ) :   0.8406 B( 37-O , 39-C ) :   0.8477 B( 38-C , 40-C ) :   1.0052
B( 38-C , 41-H ) :   0.9562 B( 38-C , 42-H ) :   0.9531 B( 39-C , 46-C ) :   1.0196
B( 39-C , 47-H ) :   0.9490 B( 39-C , 48-H ) :   0.9607 B( 40-C , 43-H ) :   0.9728
B( 40-C , 44-H ) :   0.9633 B( 40-C , 45-H ) :   0.9742 B( 46-C , 49-H ) :   0.9718
B( 46-C , 50-H ) :   0.9623 B( 46-C , 51-H ) :   0.9726

-----------------------------------------------------------------------------
         ABSORPTION SPECTRUM VIA TRANSITION ELECTRIC DIPOLE MOMENTS
-----------------------------------------------------------------------------
State   Energy    Wavelength  fosc         T2        TX        TY        TZ
        (cm-1)      (nm)                 (au**2)    (au)      (au)      (au)
-----------------------------------------------------------------------------
   1   17033.9    587.1   0.105672471   2.04232  -1.06013  -0.72028   0.63218

FINAL SINGLE POINT ENERGY     -1603.914128177466

DIPOLE MOMENT
-------------
                                X             Y             Z
Electronic contribution:      6.64640     -15.19409      -3.69716
Nuclear contribution   :     -7.23780      13.54190       2.96469
                        -----------------------------------------
Total Dipole Moment    :     -0.59139      -1.65219      -0.73247
                        -----------------------------------------
Magnitude (a.u.)       :      1.90157
Magnitude (Debye)      :      4.83342

VIBRATIONAL FREQUENCIES
-----------------------

Scaling factor for frequencies =  1.000000000 (already applied!)

   0:         0.00 cm**-1
   1:         0.00 cm**-1
   2:         0.00 cm**-1
   3:         0.00 cm**-1
   4:         0.00 cm**-1
   5:         0.00 cm**-1
   6:        21.78 cm**-1
   7:        25.23 cm**-1
   8:        29.86 cm**-1
   9:        44.25 cm**-1
  10:        48.31 cm**-1
  11:        56.02 cm**-1
  12:        57.39 cm**-1
  13:        72.91 cm**-1
  14:        74.58 cm**-1
  15:        82.13 cm**-1
  16:        98.94 cm**-1
  17:        99.91 cm**-1
  18:       110.78 cm**-1
  19:       116.36 cm**-1
  20:       134.62 cm**-1
  21:       149.86 cm**-1
  22:       162.13 cm**-1
  23:       180.99 cm**-1
  24:       186.88 cm**-1
  25:       208.97 cm**-1
  26:       226.19 cm**-1
  27:       233.30 cm**-1
  28:       253.70 cm**-1
  29:       257.75 cm**-1
  30:       262.99 cm**-1
  31:       290.82 cm**-1
  32:       312.48 cm**-1
  33:       321.34 cm**-1
  34:       336.91 cm**-1
  35:       349.21 cm**-1
  36:       371.49 cm**-1
  37:       376.29 cm**-1
  38:       407.09 cm**-1
  39:       423.74 cm**-1
  40:       441.39 cm**-1
  41:       454.51 cm**-1
  42:       465.44 cm**-1
  43:       486.07 cm**-1
  44:       501.77 cm**-1
  45:       505.44 cm**-1
  46:       529.77 cm**-1
  47:       541.98 cm**-1
  48:       555.87 cm**-1
  49:       570.75 cm**-1
  50:       597.24 cm**-1
  51:       621.71 cm**-1
  52:       637.97 cm**-1
  53:       678.95 cm**-1
  54:       707.27 cm**-1
  55:       721.84 cm**-1
  56:       737.69 cm**-1
  57:       741.16 cm**-1
  58:       764.88 cm**-1
  59:       777.82 cm**-1
  60:       779.88 cm**-1
  61:       797.82 cm**-1
  62:       804.70 cm**-1
  63:       819.69 cm**-1
  64:       824.01 cm**-1
  65:       827.11 cm**-1
  66:       848.44 cm**-1
  67:       860.94 cm**-1
  68:       907.89 cm**-1
  69:       942.90 cm**-1
  70:       955.66 cm**-1
  71:       958.02 cm**-1
  72:       967.95 cm**-1
  73:       981.46 cm**-1
  74:       982.03 cm**-1
  75:       990.17 cm**-1
  76:       996.78 cm**-1
  77:       999.45 cm**-1
  78:      1040.32 cm**-1
  79:      1051.50 cm**-1
  80:      1069.92 cm**-1
  81:      1086.31 cm**-1
  82:      1094.62 cm**-1
  83:      1113.84 cm**-1
  84:      1117.17 cm**-1
  85:      1118.37 cm**-1
  86:      1119.04 cm**-1
  87:      1124.16 cm**-1
  88:      1158.13 cm**-1
  89:      1166.46 cm**-1
  90:      1172.46 cm**-1
  91:      1179.58 cm**-1
  92:      1188.87 cm**-1
  93:      1192.58 cm**-1
  94:      1204.07 cm**-1
  95:      1241.02 cm**-1
  96:      1243.89 cm**-1
  97:      1264.91 cm**-1
  98:      1273.16 cm**-1
  99:      1280.02 cm**-1
 100:      1311.59 cm**-1
 101:      1313.17 cm**-1
 102:      1337.97 cm**-1
 103:      1365.45 cm**-1
 104:      1378.49 cm**-1
 105:      1390.80 cm**-1
 106:      1401.49 cm**-1
 107:      1403.32 cm**-1
 108:      1411.51 cm**-1
 109:      1416.58 cm**-1
 110:      1418.79 cm**-1
 111:      1440.50 cm**-1
 112:      1442.12 cm**-1
 113:      1453.38 cm**-1
 114:      1460.68 cm**-1
 115:      1470.02 cm**-1
 116:      1470.17 cm**-1
 117:      1471.79 cm**-1
 118:      1479.62 cm**-1
 119:      1483.17 cm**-1
 120:      1483.56 cm**-1
 121:      1489.14 cm**-1
 122:      1492.76 cm**-1
 123:      1511.75 cm**-1
 124:      1512.83 cm**-1
 125:      1516.41 cm**-1
 126:      1531.84 cm**-1
 127:      1548.18 cm**-1
 128:      1568.84 cm**-1
 129:      1586.12 cm**-1
 130:      1601.82 cm**-1
 131:      1727.90 cm**-1
 132:      3034.28 cm**-1
 133:      3040.04 cm**-1
 134:      3040.84 cm**-1
 135:      3041.94 cm**-1
 136:      3068.46 cm**-1
 137:      3073.61 cm**-1
 138:      3096.28 cm**-1
 139:      3103.50 cm**-1
 140:      3104.80 cm**-1
 141:      3105.89 cm**-1
 142:      3107.04 cm**-1
 143:      3109.18 cm**-1
 144:      3128.88 cm**-1
 145:      3134.15 cm**-1
 146:      3168.71 cm**-1
 147:      3195.80 cm**-1
 148:      3196.50 cm**-1
 149:      3201.99 cm**-1
 150:      3204.57 cm**-1
 151:      3210.34 cm**-1
 152:      3211.21 cm**-1
 153:      3222.43 cm**-1
 154:      3224.14 cm**-1
 155:      3238.82 cm**-1

IR SPECTRUM
-----------

 Mode   freq       eps      Int      T**2         TX        TY        TZ
       cm**-1   L/(mol*cm) km/mol    a.u.
----------------------------------------------------------------------------
  6:     21.78   0.000006    0.03  0.000091  ( 0.007919  0.005114 -0.001377)
  7:     25.23   0.000024    0.12  0.000292  (-0.002603 -0.012354 -0.011506)
  8:     29.86   0.000357    1.80  0.003727  ( 0.003940 -0.056611 -0.022519)
  9:     44.25   0.000380    1.92  0.002679  ( 0.017637 -0.029882  0.038410)
 10:     48.31   0.000575    2.90  0.003713  ( 0.023223 -0.021841  0.051933)
 11:     56.02   0.000439    2.22  0.002448  (-0.021888  0.038698  0.021721)
 12:     57.39   0.000193    0.98  0.001051  (-0.013964 -0.028665  0.005822)
 13:     72.91   0.000554    2.80  0.002370  (-0.030960 -0.032840  0.018259)
 14:     74.58   0.000567    2.87  0.002373  ( 0.031331  0.017555 -0.032917)
 15:     82.13   0.002085   10.54  0.007923  ( 0.025557  0.030263  0.079714)
 16:     98.94   0.000147    0.74  0.000463  ( 0.012977 -0.007531  0.015430)
 17:     99.91   0.002084   10.53  0.006510  (-0.051152 -0.055984 -0.027546)
 18:    110.78   0.000156    0.79  0.000440  (-0.001040  0.020830 -0.002346)
 19:    116.36   0.000577    2.91  0.001547  ( 0.034640  0.012702  0.013615)
 20:    134.62   0.000810    4.09  0.001878  (-0.041441  0.004597 -0.011830)
 21:    149.86   0.000379    1.92  0.000790  ( 0.000973  0.025064 -0.012668)
 22:    162.13   0.000198    1.00  0.000382  (-0.005161 -0.013648  0.012986)
 23:    180.99   0.004234   21.40  0.007301  (-0.079631  0.028217 -0.012800)
 24:    186.88   0.000264    1.33  0.000440  (-0.006165  0.007629 -0.018550)
 25:    208.97   0.001024    5.18  0.001529  ( 0.003690  0.036100  0.014575)
 26:    226.19   0.000530    2.68  0.000732  ( 0.007386  0.012127 -0.023026)
 27:    233.30   0.000504    2.54  0.000674  ( 0.013649 -0.007619 -0.020718)
 28:    253.70   0.001899    9.59  0.002335  ( 0.010392 -0.047182  0.001151)
 29:    257.75   0.000079    0.40  0.000095  ( 0.001488 -0.003842  0.008859)
 30:    262.99   0.001088    5.50  0.001290  ( 0.029237 -0.020623  0.003217)
 31:    290.82   0.001088    5.50  0.001168  (-0.018225  0.005997 -0.028275)
 32:    312.48   0.000330    1.67  0.000330  (-0.011421  0.007295 -0.012083)
 33:    321.34   0.002199   11.11  0.002136  (-0.007240 -0.040773 -0.020518)
 34:    336.91   0.002628   13.28  0.002434  ( 0.028883  0.003560  0.039836)
 35:    349.21   0.003834   19.38  0.003427  ( 0.048954 -0.029051 -0.013642)
 36:    371.49   0.003663   18.51  0.003077  ( 0.040049 -0.014991  0.035330)
 37:    376.29   0.001319    6.66  0.001093  ( 0.022612 -0.010640 -0.021655)
 38:    407.09   0.002643   13.36  0.002026  (-0.005299  0.037255 -0.024694)
 39:    423.74   0.002756   13.93  0.002030  ( 0.003166 -0.026512 -0.036287)
 40:    441.39   0.000692    3.50  0.000489  (-0.018661 -0.007866 -0.008892)
 41:    454.51   0.006579   33.25  0.004517  (-0.013909  0.013711  0.064307)
 42:    465.44   0.000749    3.79  0.000502  ( 0.011214 -0.010771  0.016141)
 43:    486.07   0.001706    8.62  0.001095  ( 0.006982  0.002865  0.032226)
 44:    501.77   0.002240   11.32  0.001393  (-0.010421  0.028093 -0.022259)
 45:    505.44   0.055594  280.95  0.034324  ( 0.027506 -0.117351 -0.140699)
 46:    529.77   0.003860   19.51  0.002274  (-0.040791 -0.002048 -0.024615)
 47:    541.98   0.002407   12.16  0.001386  ( 0.035483 -0.003672 -0.010646)
 48:    555.87   0.001863    9.42  0.001046  ( 0.017628  0.016453  0.021552)
 49:    570.75   0.009021   45.59  0.004932  ( 0.037514  0.015008  0.057444)
 50:    597.24   0.010047   50.77  0.005250  (-0.068091  0.003157  0.024565)
 51:    621.71   0.006995   35.35  0.003511  ( 0.024445  0.014326 -0.052043)
 52:    637.97   0.003476   17.56  0.001700  (-0.002200  0.040865  0.005035)
 53:    678.95   0.038676  195.45  0.017777  ( 0.083762  0.076505  0.070054)
 54:    707.27   0.003686   18.63  0.001626  (-0.019328  0.033944  0.010021)
 55:    721.84   0.000746    3.77  0.000322  (-0.005089  0.016517  0.004877)
 56:    737.69   0.006271   31.69  0.002653  (-0.008117 -0.050331 -0.007330)
 57:    741.16   0.008939   45.18  0.003764  (-0.023490 -0.008590  0.056021)
 58:    764.88   0.006401   32.35  0.002611  ( 0.002628 -0.043808 -0.026180)
 59:    777.82   0.007612   38.47  0.003054  ( 0.028271  0.040422  0.024915)
 60:    779.88   0.028432  143.69  0.011377  ( 0.019649  0.076615  0.071561)
 61:    797.82   0.014616   73.86  0.005717  ( 0.029672 -0.069326 -0.005532)
 62:    804.70   0.003360   16.98  0.001303  ( 0.008676  0.029473  0.018953)
 63:    819.69   0.000848    4.28  0.000323  ( 0.010430 -0.012294 -0.007928)
 64:    824.01   0.000977    4.94  0.000370  ( 0.004093 -0.000959  0.018774)
 65:    827.11   0.002091   10.57  0.000789  ( 0.027623 -0.000929  0.005015)
 66:    848.44   0.004602   23.26  0.001693  (-0.029758  0.012182 -0.025668)
 67:    860.94   0.023560  119.06  0.008540  (-0.058317 -0.008812 -0.071142)
 68:    907.89   0.020945  105.85  0.007199  ( 0.000029 -0.056010 -0.063734)
 69:    942.90   0.001320    6.67  0.000437  ( 0.003034  0.011863 -0.016942)
 70:    955.66   0.014178   71.65  0.004630  (-0.039618  0.004118 -0.055165)
 71:    958.02   0.066797  337.57  0.021758  ( 0.101052 -0.050090  0.095068)
 72:    967.95   0.044788  226.34  0.014440  ( 0.107507  0.013739  0.051895)
 73:    981.46   0.170431  861.29  0.054190  (-0.209073  0.099555 -0.023812)
 74:    982.03   0.013756   69.52  0.004371  (-0.053354  0.036235  0.014549)
 75:    990.17   0.000471    2.38  0.000148  ( 0.006384 -0.007237 -0.007428)
 76:    996.78   0.007397   37.38  0.002316  ( 0.021837 -0.041655 -0.010195)
 77:    999.45   0.056706  286.57  0.017705  ( 0.118375 -0.056149  0.023241)
 78:   1040.32   0.061521  310.90  0.018454  (-0.097821  0.092518  0.018050)
 79:   1051.50   0.025905  130.91  0.007688  ( 0.005196 -0.042576 -0.076474)
 80:   1069.92   0.017536   88.62  0.005115  ( 0.038446 -0.030936  0.051763)
 81:   1086.31   0.020316  102.67  0.005836  (-0.058224  0.033703 -0.036199)
 82:   1094.62   0.155413  785.39  0.044306  ( 0.163383 -0.111346  0.072211)
 83:   1113.84   0.003969   20.06  0.001112  ( 0.025953 -0.015481 -0.014097)
 84:   1117.17   0.000249    1.26  0.000069  (-0.006848 -0.003734  0.002941)
 85:   1118.37   0.001690    8.54  0.000472  ( 0.001096  0.021689 -0.000302)
 86:   1119.04   0.002164   10.94  0.000604  ( 0.013727  0.009880  0.017819)
 87:   1124.16   0.009555   48.29  0.002653  ( 0.017543  0.035836 -0.032566)
 88:   1158.13   0.004708   23.79  0.001269  (-0.009595 -0.033482 -0.007456)
 89:   1166.46   0.002877   14.54  0.000770  (-0.016731  0.021902  0.003152)
 90:   1172.46   0.001569    7.93  0.000418  (-0.015390  0.003062  0.013095)
 91:   1179.58   0.002236   11.30  0.000591  (-0.012983  0.015091 -0.013969)
 92:   1188.87   0.002808   14.19  0.000737  ( 0.005844  0.003515  0.026278)
 93:   1192.58   0.007734   39.09  0.002024  ( 0.001968  0.010718 -0.043648)
 94:   1204.07   0.010902   55.09  0.002825  ( 0.051045  0.012140 -0.008514)
 95:   1241.02   0.015842   80.06  0.003984  (-0.042891  0.045628 -0.007878)
 96:   1243.89   0.014336   72.45  0.003597  (-0.016580  0.035066 -0.045739)
 97:   1264.91   0.003690   18.65  0.000910  ( 0.003716  0.021601 -0.020733)
 98:   1273.16   0.046544  235.21  0.011408  ( 0.018776  0.094174 -0.046765)
 99:   1280.02   0.026091  131.85  0.006361  ( 0.057456  0.028913 -0.047156)
100:   1311.59   0.000412    2.08  0.000098  ( 0.002324 -0.009374  0.002186)
101:   1313.17   0.000314    1.59  0.000075  ( 0.005552 -0.002581  0.006099)
102:   1337.97   0.007149   36.13  0.001667  ( 0.038643  0.011501  0.006473)
103:   1365.45   0.087770  443.55  0.020059  (-0.048966 -0.127217  0.038436)
104:   1378.49   0.008322   42.06  0.001884  (-0.043016 -0.001200  0.005669)
105:   1390.80   0.031767  160.54  0.007128  (-0.063162  0.048954 -0.027236)
106:   1401.49   0.000014    0.07  0.000003  ( 0.001264  0.000333 -0.001182)
107:   1403.32   0.000300    1.52  0.000067  (-0.005067 -0.005314  0.003583)
108:   1411.51   0.041420  209.32  0.009157  ( 0.005421 -0.094938  0.010705)
109:   1416.58   0.003449   17.43  0.000760  (-0.026962  0.003561  0.004491)
110:   1418.79   0.002712   13.71  0.000597  ( 0.013680  0.004212  0.019790)
111:   1440.50   0.010889   55.03  0.002359  ( 0.011269 -0.045481  0.012779)
112:   1442.12   0.004569   23.09  0.000989  ( 0.023062 -0.020697 -0.005331)
113:   1453.38   0.001396    7.06  0.000300  ( 0.009699  0.010978  0.009231)
114:   1460.68   0.010905   55.11  0.002330  (-0.044563  0.002663  0.018352)
115:   1470.02   0.002003   10.12  0.000425  ( 0.001597  0.007283 -0.019226)
116:   1470.17   0.002788   14.09  0.000592  ( 0.009188 -0.002246 -0.022414)
117:   1471.79   0.000456    2.30  0.000097  ( 0.002617  0.008729  0.003687)
118:   1479.62   0.005292   26.74  0.001116  ( 0.009042  0.032040 -0.002787)
119:   1483.17   0.000696    3.52  0.000146  (-0.008652  0.007783 -0.003311)
120:   1483.56   0.000626    3.16  0.000132  (-0.010326 -0.003020  0.003989)
121:   1489.14   0.004179   21.12  0.000876  ( 0.003962 -0.016937 -0.023942)
122:   1492.76   0.002338   11.82  0.000489  ( 0.008870  0.014673  0.013956)
123:   1511.75   0.001584    8.01  0.000327  (-0.006872  0.016449 -0.003035)
124:   1512.83   0.011690   59.08  0.002411  (-0.041345 -0.005441 -0.025933)
125:   1516.41   0.004407   22.27  0.000907  (-0.022594  0.019424 -0.004386)
126:   1531.84   0.016812   84.96  0.003425  (-0.042463 -0.031954  0.024512)
127:   1548.18   0.001919    9.70  0.000387  (-0.002142 -0.018505 -0.006306)
128:   1568.84   0.023512  118.82  0.004677  (-0.051635  0.005097  0.044551)
129:   1586.12   0.025126  126.98  0.004943  ( 0.012407 -0.067109 -0.016908)
130:   1601.82   0.008666   43.79  0.001688  ( 0.005031  0.040488 -0.004858)
131:   1727.90   0.176373  891.32  0.031853  (-0.130319  0.066912  0.101947)
132:   3034.28   0.007908   39.97  0.000813  (-0.014217  0.001164 -0.024695)
133:   3040.04   0.016115   81.44  0.001654  ( 0.040063 -0.005392 -0.004479)
134:   3040.84   0.002603   13.15  0.000267  (-0.012225 -0.009815 -0.004615)
135:   3041.94   0.002835   14.33  0.000291  (-0.003277  0.015958  0.005044)
136:   3068.46   0.003723   18.82  0.000379  ( 0.006517 -0.018262  0.001642)
137:   3073.61   0.004333   21.90  0.000440  (-0.015877 -0.011094 -0.008046)
138:   3096.28   0.006230   31.48  0.000628  ( 0.003730  0.023960  0.006317)
139:   3103.50   0.000803    4.06  0.000081  (-0.004439 -0.000658  0.007782)
140:   3104.80   0.004606   23.28  0.000463  (-0.000717 -0.021485 -0.000900)
141:   3105.89   0.001601    8.09  0.000161  ( 0.004458  0.006563 -0.009894)
142:   3107.04   0.004851   24.52  0.000487  ( 0.007291 -0.020538  0.003508)
143:   3109.18   0.004853   24.52  0.000487  (-0.019054 -0.008305 -0.007416)
144:   3128.88   0.007111   35.93  0.000709  (-0.009516  0.002737  0.024721)
145:   3134.15   0.005615   28.37  0.000559  ( 0.001459  0.006757 -0.022611)
146:   3168.71   0.000970    4.90  0.000096  ( 0.007388 -0.000191 -0.006397)
147:   3195.80   0.000471    2.38  0.000046  (-0.002607  0.001122 -0.006158)
148:   3196.50   0.000102    0.51  0.000010  (-0.000284 -0.003123  0.000270)
149:   3201.99   0.000068    0.34  0.000007  ( 0.001332 -0.001932 -0.001069)
150:   3204.57   0.000111    0.56  0.000011  (-0.001231  0.001069  0.002859)
151:   3210.34   0.000336    1.70  0.000033  ( 0.000154  0.004890 -0.002948)
152:   3211.21   0.000959    4.85  0.000093  (-0.005923  0.007620  0.000148)
153:   3222.43   0.000941    4.76  0.000091  (-0.002541 -0.008143  0.004290)
154:   3224.14   0.001321    6.67  0.000128  ( 0.008644 -0.000372 -0.007279)
155:   3238.82   0.004928   24.90  0.000475  (-0.003281  0.021419 -0.002289)

--------------------------
THERMOCHEMISTRY AT 298.15K
--------------------------

Temperature         ... 298.15 K
Pressure            ... 1.00 atm
Total Mass          ... 403.39 AMU

Throughout the following assumptions are being made:
  (1) The electronic state is orbitally nondegenerate
  (2) There are no thermally accessible electronically excited states
  (3) Hindered rotations indicated by low frequency modes are not
      treated as such but are treated as vibrations and this may
      cause some error
  (4) All equations used are the standard statistical mechanics
      equations for an ideal gas
  (5) All vibrations are strictly harmonic

freq.      21.78  E(vib)   ...       0.56
freq.      25.23  E(vib)   ...       0.56
freq.      29.86  E(vib)   ...       0.55
freq.      44.25  E(vib)   ...       0.53
freq.      48.31  E(vib)   ...       0.53
freq.      56.02  E(vib)   ...       0.52
freq.      57.39  E(vib)   ...       0.51
freq.      72.91  E(vib)   ...       0.49
freq.      74.58  E(vib)   ...       0.49
freq.      82.13  E(vib)   ...       0.48
freq.      98.94  E(vib)   ...       0.46
freq.      99.91  E(vib)   ...       0.46
freq.     110.78  E(vib)   ...       0.45
freq.     116.36  E(vib)   ...       0.44
freq.     134.62  E(vib)   ...       0.42
freq.     149.86  E(vib)   ...       0.40
freq.     162.13  E(vib)   ...       0.39
freq.     180.99  E(vib)   ...       0.37
freq.     186.88  E(vib)   ...       0.36
freq.     208.97  E(vib)   ...       0.34
freq.     226.19  E(vib)   ...       0.33
freq.     233.30  E(vib)   ...       0.32
freq.     253.70  E(vib)   ...       0.30
freq.     257.75  E(vib)   ...       0.30
freq.     262.99  E(vib)   ...       0.29
freq.     290.82  E(vib)   ...       0.27
freq.     312.48  E(vib)   ...       0.25
freq.     321.34  E(vib)   ...       0.25
freq.     336.91  E(vib)   ...       0.24
freq.     349.21  E(vib)   ...       0.23
freq.     371.49  E(vib)   ...       0.21
freq.     376.29  E(vib)   ...       0.21
freq.     407.09  E(vib)   ...       0.19
freq.     423.74  E(vib)   ...       0.18
freq.     441.39  E(vib)   ...       0.17
freq.     454.51  E(vib)   ...       0.16
freq.     465.44  E(vib)   ...       0.16
freq.     486.07  E(vib)   ...       0.15
freq.     501.77  E(vib)   ...       0.14
freq.     505.44  E(vib)   ...       0.14
freq.     529.77  E(vib)   ...       0.13
freq.     541.98  E(vib)   ...       0.12
freq.     555.87  E(vib)   ...       0.12
freq.     570.75  E(vib)   ...       0.11
freq.     597.24  E(vib)   ...       0.10
freq.     621.71  E(vib)   ...       0.09
freq.     637.97  E(vib)   ...       0.09
freq.     678.95  E(vib)   ...       0.08
freq.     707.27  E(vib)   ...       0.07
freq.     721.84  E(vib)   ...       0.07
freq.     737.69  E(vib)   ...       0.06
freq.     741.16  E(vib)   ...       0.06
freq.     764.88  E(vib)   ...       0.06
freq.     777.82  E(vib)   ...       0.05
freq.     779.88  E(vib)   ...       0.05
freq.     797.82  E(vib)   ...       0.05
freq.     804.70  E(vib)   ...       0.05
freq.     819.69  E(vib)   ...       0.05
freq.     824.01  E(vib)   ...       0.05
freq.     827.11  E(vib)   ...       0.04
freq.     848.44  E(vib)   ...       0.04
freq.     860.94  E(vib)   ...       0.04
freq.     907.89  E(vib)   ...       0.03
freq.     942.90  E(vib)   ...       0.03
freq.     955.66  E(vib)   ...       0.03
freq.     958.02  E(vib)   ...       0.03
freq.     967.95  E(vib)   ...       0.03
freq.     981.46  E(vib)   ...       0.02
freq.     982.03  E(vib)   ...       0.02
freq.     990.17  E(vib)   ...       0.02
freq.     996.78  E(vib)   ...       0.02
freq.     999.45  E(vib)   ...       0.02
freq.    1040.32  E(vib)   ...       0.02
freq.    1051.50  E(vib)   ...       0.02
freq.    1069.92  E(vib)   ...       0.02
freq.    1086.31  E(vib)   ...       0.02
freq.    1094.62  E(vib)   ...       0.02
freq.    1113.84  E(vib)   ...       0.01
freq.    1117.17  E(vib)   ...       0.01
freq.    1118.37  E(vib)   ...       0.01
freq.    1119.04  E(vib)   ...       0.01
freq.    1124.16  E(vib)   ...       0.01
freq.    1158.13  E(vib)   ...       0.01
freq.    1166.46  E(vib)   ...       0.01
freq.    1172.46  E(vib)   ...       0.01
freq.    1179.58  E(vib)   ...       0.01
freq.    1188.87  E(vib)   ...       0.01
freq.    1192.58  E(vib)   ...       0.01
freq.    1204.07  E(vib)   ...       0.01
freq.    1241.02  E(vib)   ...       0.01
freq.    1243.89  E(vib)   ...       0.01
freq.    1264.91  E(vib)   ...       0.01
freq.    1273.16  E(vib)   ...       0.01
freq.    1280.02  E(vib)   ...       0.01
freq.    1311.59  E(vib)   ...       0.01
freq.    1313.17  E(vib)   ...       0.01
freq.    1337.97  E(vib)   ...       0.01
freq.    1365.45  E(vib)   ...       0.01
freq.    1378.49  E(vib)   ...       0.01
freq.    1390.80  E(vib)   ...       0.00
freq.    1401.49  E(vib)   ...       0.00
freq.    1403.32  E(vib)   ...       0.00
freq.    1411.51  E(vib)   ...       0.00
freq.    1416.58  E(vib)   ...       0.00
freq.    1418.79  E(vib)   ...       0.00
freq.    1440.50  E(vib)   ...       0.00
freq.    1442.12  E(vib)   ...       0.00
freq.    1453.38  E(vib)   ...       0.00
freq.    1460.68  E(vib)   ...       0.00
freq.    1470.02  E(vib)   ...       0.00
freq.    1470.17  E(vib)   ...       0.00
freq.    1471.79  E(vib)   ...       0.00
freq.    1479.62  E(vib)   ...       0.00
freq.    1483.17  E(vib)   ...       0.00
freq.    1483.56  E(vib)   ...       0.00
freq.    1489.14  E(vib)   ...       0.00
freq.    1492.76  E(vib)   ...       0.00
freq.    1511.75  E(vib)   ...       0.00
freq.    1512.83  E(vib)   ...       0.00
freq.    1516.41  E(vib)   ...       0.00
freq.    1531.84  E(vib)   ...       0.00
freq.    1548.18  E(vib)   ...       0.00
freq.    1568.84  E(vib)   ...       0.00
freq.    1586.12  E(vib)   ...       0.00
freq.    1601.82  E(vib)   ...       0.00
freq.    1727.90  E(vib)   ...       0.00
freq.    3034.28  E(vib)   ...       0.00
freq.    3040.04  E(vib)   ...       0.00
freq.    3040.84  E(vib)   ...       0.00
freq.    3041.94  E(vib)   ...       0.00
freq.    3068.46  E(vib)   ...       0.00
freq.    3073.61  E(vib)   ...       0.00
freq.    3096.28  E(vib)   ...       0.00
freq.    3103.50  E(vib)   ...       0.00
freq.    3104.80  E(vib)   ...       0.00
freq.    3105.89  E(vib)   ...       0.00
freq.    3107.04  E(vib)   ...       0.00
freq.    3109.18  E(vib)   ...       0.00
freq.    3128.88  E(vib)   ...       0.00
freq.    3134.15  E(vib)   ...       0.00
freq.    3168.71  E(vib)   ...       0.00
freq.    3195.80  E(vib)   ...       0.00
freq.    3196.50  E(vib)   ...       0.00
freq.    3201.99  E(vib)   ...       0.00

Rotational constants in cm-1:     0.006511     0.006271     0.004537

                             ****ORCA TERMINATED NORMALLY****
TOTAL RUN TIME: 11 days 9 hours 31 minutes 13 seconds 110 msec
