                         Program Version 6.0.1  -  RELEASE   -
|  1> !XTB goat ddCOSMO(water)
|  2>
|  3> %tddft
|  4>     NRoots 3
|  5>     IRoot 1
|  6> end
|  7>
|  8> * xyz 0 1
|  9> C  -3.06752287103923526601 -1.43435831473892316801 0.16984916817882181328
| 10> C  -2.46984533450219911899 -2.34966376558500211758 -0.69222369723679766373
| 11> C  -1.22430336777950676819 -2.09261104437477518658 -1.20538521801666220767
| 12> C  -2.40376764811373622166 -0.28447439797123563743 0.54276971993128886318
| 13> C  -1.09588432949153014029 -0.02233773009250381025 0.08193597148949569031
| 14> O  -3.06499636131998931532 0.57040068246234587601 1.39784780221665827504
| 15> C  -0.52336174692372872119 -0.93419695983867545586 -0.83692873392357169937
| 16> C  0.76244385364517219816 -0.66604818279777511236 -1.39074879959724762024
| 17> C  1.45839287757204361107 0.44321870546784064571 -1.05522825420540744545
| 18> C  -0.31959396252405442018 1.11525621578416700430 0.50281452880431842800
| 19> C  0.94354774532827268008 1.35469132015285720350 -0.09318823266313638887
| 20> N  -0.79144386387134035843 1.91077424136794582488 1.47132810841203309771
| 21> C  -0.09963388960183006127 2.95799889848734309794 1.83986283364681924013
| 22> C  1.13070834136383480129 3.31246038358829020254 1.28096215584141104316
| 23> C  1.65735358856684933393 2.49225515870674207974 0.31367380928346383362
| 24> C  -3.21548641801195644874 1.86390577745979468816 0.97633186289881723763
| 25> O  -3.09056141938650519307 2.20742174079780539842 -0.17496206761175769895
| 26> N  -3.63450496405364464891 2.66685482607118640175 1.97534963719386413850
| 27> C  -3.96032310653770913689 4.04031069660626496187 1.68472705073079964677
| 28> C  -3.72312196647545601280 2.25785698204989548898 3.35322717597892783203
| 29> H  -3.22182297654834748357 2.99425949469242924650 3.98544734201810513241
| 30> H  -3.24038555440540987362 1.29371135632447753494 3.47864658384662384094
| 31> H  -4.76891842531317866616 2.18238129113743184462 3.66620697425023678306
| 32> H  -3.84740263095191226128 4.19815380494793899402 0.61458211341507029690
| 33> H  -3.28970395525826697636 4.71582553978040497356 2.22229040731935123532
| 34> H  -4.99041375542383658370 4.25525939877253911447 1.97982086488619057896
| 35> H  -0.76600234977655190516 -2.77843727856407207710 -1.90285520831786492124
| 36> H  -4.06298997237291725781 -1.60341909569631879684 0.55051547792050858909
| 37> H  -3.00393122211439411728 -3.24557289232116907840 -0.97114644293215279802
| 38> H  1.16302990482835277852 -1.37389651997540784834 -2.10228950094499511536
| 39> H  2.42342803746063362169 0.65341336988140474862 -1.49476673302918494635
| 40> H  -0.54045512606199042072 3.55366622534108778098 2.62964013119329598211
| 41> H  1.64857512475566658772 4.19853645602888025934 1.61434428502218962898
| 42> H  2.61705775695450260088 2.70423362319696591882 -0.13807112168042084965
| 43> **                         ****END OF INPUT****
FINAL SINGLE POINT ENERGY       -55.440102333490
FINAL SINGLE POINT ENERGY       -55.440593611790
FINAL SINGLE POINT ENERGY       -55.440417181000
FINAL SINGLE POINT ENERGY       -55.440769659190
FINAL SINGLE POINT ENERGY       -55.440801513240
FINAL SINGLE POINT ENERGY       -55.440822478250
FINAL SINGLE POINT ENERGY       -55.440824838130
FINAL SINGLE POINT ENERGY       -55.440826410580
                    ***********************HURRAY********************

CARTESIAN COORDINATES (ANGSTROEM)
---------------------------------
  C    -3.060787   -1.425627    0.174791
  C    -2.468537   -2.344924   -0.688083
  C    -1.221427   -2.094891   -1.200413
  C    -2.385644   -0.283568    0.548279
  C    -1.077354   -0.026596    0.089552
  O    -3.047360    0.578620    1.409481
  C    -0.512293   -0.940946   -0.832696
  C     0.771816   -0.677019   -1.392814
  C     1.467868    0.435318   -1.068144
  C    -0.296642    1.110811    0.503665
  C     0.958283    1.352334   -0.107940
  N    -0.760692    1.908997    1.476402
  C    -0.068661    2.965483    1.827279
  C     1.151049    3.322253    1.248888
  C     1.671547    2.496382    0.282918
  C    -3.205671    1.868036    1.003829
  O    -3.061530    2.216845   -0.161838
  N    -3.641494    2.663553    1.982498
  C    -3.960231    4.046127    1.708527
  C    -3.794449    2.243572    3.357041
  H    -3.295980    2.963839    4.005275
  H    -3.347256    1.264482    3.493733
  H    -4.853393    2.201033    3.617242
  H    -3.840319    4.227703    0.642668
  H    -3.289053    4.701267    2.265216
  H    -4.990265    4.250236    2.001760
  H    -0.766622   -2.781057   -1.897776
  H    -4.056855   -1.584424    0.556948
  H    -3.009315   -3.235489   -0.965700
  H     1.166979   -1.389233   -2.100864
  H     2.428661    0.646630   -1.513141
  H    -0.506266    3.558540    2.618877
  H     1.665693    4.213155    1.569805
  H     2.624362    2.706389   -0.180883

FINAL SINGLE POINT ENERGY       -55.440827029410

DIPOLE MOMENT
-------------
                                X             Y             Z
Total Dipole Moment    :      0.66200       0.06300       1.10000
                        -----------------------------------------
Magnitude (a.u.)       :      1.28538
Magnitude (Debye)      :      3.26719

                             ****ORCA TERMINATED NORMALLY****
TOTAL RUN TIME: 0 days 4 hours 21 minutes 19 seconds 457 msec
