                         Program Version 5.0.4 -  RELEASE  -
|  1> ! B3LYP/G OPT Freq Def2-TZVP(-f) Def2-TZVP/C Def2/J RIJCOSX TightSCF CPCM(Water) AllPop SOSCF
|  2> %maxcore 3000
|  3>
|  4> %scf
|  5>        MaxIter 125
|  6>        CNVDIIS 1
|  7>        CNVSOSCF 1
|  8> end
|  9>
| 10> %tddft
| 11>     NRoots 1
| 12>     IRoot 1
| 13> end
| 14>
| 15> * xyz 0 1
| 16>    C       -3.31065        0.03709       -0.59095
| 17>    C       -2.95550       -1.29476       -0.74846
| 18>    C       -1.62830       -1.67132       -0.60267
| 19>    C       -2.34974        1.00114       -0.27693
| 20>    C       -0.98697        0.64104       -0.13176
| 21>    O       -2.80434        2.30557       -0.16605
| 22>    C       -0.65316       -0.71947       -0.30083
| 23>    C        0.66268       -1.15636       -0.17245
| 24>    C        1.66999       -0.25468        0.12861
| 25>    C        0.04392        1.56409        0.18416
| 26>    C        1.36748        1.09093        0.30776
| 27>    N       -0.20478        2.88644        0.37860
| 28>    C        0.79993        3.73588        0.67832
| 29>    C        2.11836        3.31823        0.80577
| 30>    C        2.40510        1.97268        0.61781
| 31>    C       -3.85249        2.77775        0.55453
| 32>    O       -4.52616        3.70322        0.14759
| 33>    N       -4.06536        2.21490        1.78096
| 34>    C       -5.24828        2.58682        2.57427
| 35>    C       -3.06358        1.44177        2.53867
| 36>    H       -2.06159        1.81923        2.31845
| 37>    H       -3.12976        0.38587        2.26527
| 38>    H       -3.23728        1.54266        3.61341
| 39>    H       -6.11571        2.69417        1.91690
| 40>    H       -5.05935        3.53714        3.08075
| 41>    H       -5.46568        1.81376        3.31634
| 42>    H       -1.35573       -2.71669       -0.73055
| 43>    H       -4.35066        0.32804       -0.71812
| 44>    H       -3.71214       -2.03697       -0.99031
| 45>    H        0.91093       -2.20682       -0.30733
| 46>    H        2.69410       -0.60782        0.22617
| 47>    H        0.51861        4.77819        0.81518
| 48>    H        2.90559        4.02785        1.04752
| 49>    H        3.42868        1.61826        0.71375
| 50> *
| 51>
| 52>                          ****END OF INPUT****
 Total Charge           Charge          ....    0
 Multiplicity           Mult            ....    1
 Number of Electrons    NEL             ....  140
FINAL SINGLE POINT ENERGY      -878.280936201267
FINAL SINGLE POINT ENERGY      -878.290077284157
FINAL SINGLE POINT ENERGY      -878.292884569272
FINAL SINGLE POINT ENERGY      -878.293947109467
FINAL SINGLE POINT ENERGY      -878.295147127433
FINAL SINGLE POINT ENERGY      -878.296301230949
FINAL SINGLE POINT ENERGY      -878.297091910857
FINAL SINGLE POINT ENERGY      -878.297707908046
FINAL SINGLE POINT ENERGY      -878.298189799905
FINAL SINGLE POINT ENERGY      -878.298550176537
FINAL SINGLE POINT ENERGY      -878.301848673205
FINAL SINGLE POINT ENERGY      -878.302003373661
FINAL SINGLE POINT ENERGY      -878.302083842934
FINAL SINGLE POINT ENERGY      -878.302119831274
FINAL SINGLE POINT ENERGY      -878.302147744622
FINAL SINGLE POINT ENERGY      -878.302166761608
FINAL SINGLE POINT ENERGY      -878.302175787612
FINAL SINGLE POINT ENERGY      -878.302174828225
FINAL SINGLE POINT ENERGY      -878.302174347382
                    ***********************HURRAY********************

CARTESIAN COORDINATES (ANGSTROEM)
---------------------------------
  C     -3.120872   -0.643755   -0.175099
  C     -2.675572   -1.733038   -0.922292
  C     -1.319498   -1.871432   -1.176912
  C     -2.212142    0.319910    0.286025
  C     -0.821131    0.276736   -0.034796
  O     -2.634981    1.243985    1.188551
  C     -0.376439   -0.907826   -0.735703
  C      0.984424   -1.089888   -0.996828
  C      1.915615   -0.134311   -0.596883
  C      0.117909    1.327632    0.247973
  C      1.520784    1.077812   -0.004167
  N     -0.305581    2.528067    0.721893
  C      0.623410    3.447407    1.057054
  C      1.994325    3.259612    0.932845
  C      2.460527    2.070937    0.370920
  C     -3.826677    1.938688    1.003537
  O     -4.343767    2.043656   -0.093500
  N     -4.254789    2.482239    2.152010
  C     -5.429012    3.347285    2.136411
  C     -3.604129    2.326494    3.450161
  H     -2.777229    1.630431    3.386931
  H     -4.332645    1.953276    4.172210
  H     -3.236280    3.294828    3.796543
  H     -5.866106    3.355464    1.144140
  H     -5.146047    4.363738    2.419321
  H     -6.162509    2.976639    2.854584
  H     -0.953767   -2.729252   -1.727370
  H     -4.159416   -0.561380    0.109019
  H     -3.378029   -2.481898   -1.260841
  H      1.308998   -1.986179   -1.509660
  H      2.971706   -0.311850   -0.761375
  H      0.238131    4.396316    1.416337
  H      2.674352    4.049411    1.224666
  H      3.514599    1.898076    0.198675

 Multiplicity           Mult            ....    1
 Number of Electrons    NEL             ....  140
 Basis Dimension        Dim             ....  564

ORBITAL ENERGIES
----------------

  NO   OCC          E(Eh)            E(eV)
   0   2.0000     -19.177799      -521.8544
   1   2.0000     -19.106876      -519.9245
   2   2.0000     -14.359883      -390.7523
   3   2.0000     -14.321287      -389.7020
   4   2.0000     -10.327498      -281.0255
   5   2.0000     -10.252439      -278.9831
   6   2.0000     -10.227820      -278.3131
   7   2.0000     -10.213511      -277.9238
   8   2.0000     -10.201160      -277.5877
   9   2.0000     -10.200531      -277.5706
  10   2.0000     -10.199086      -277.5312
  11   2.0000     -10.198748      -277.5220
  12   2.0000     -10.198282      -277.5093
  13   2.0000     -10.197684      -277.4931
  14   2.0000     -10.185787      -277.1693
  15   2.0000     -10.185663      -277.1660
  16   2.0000     -10.184951      -277.1466
  17   2.0000     -10.184332      -277.1298
  18   2.0000     -10.181607      -277.0556
  19   2.0000     -10.179868      -277.0083
  20   2.0000      -1.121234       -30.5103
  21   2.0000      -1.033037       -28.1104
  22   2.0000      -0.954564       -25.9750
  23   2.0000      -0.947586       -25.7851
  24   2.0000      -0.877761       -23.8851
  25   2.0000      -0.835839       -22.7443
  26   2.0000      -0.806375       -21.9426
  27   2.0000      -0.783688       -21.3252
  28   2.0000      -0.754262       -20.5245
  29   2.0000      -0.739450       -20.1215
  30   2.0000      -0.724736       -19.7211
  31   2.0000      -0.710490       -19.3334
  32   2.0000      -0.658126       -17.9085
  33   2.0000      -0.651558       -17.7298
  34   2.0000      -0.636496       -17.3199
  35   2.0000      -0.613737       -16.7006
  36   2.0000      -0.579597       -15.7716
  37   2.0000      -0.545912       -14.8550
  38   2.0000      -0.537677       -14.6309
  39   2.0000      -0.530600       -14.4384
  40   2.0000      -0.520076       -14.1520
  41   2.0000      -0.497498       -13.5376
  42   2.0000      -0.494738       -13.4625
  43   2.0000      -0.484082       -13.1726
  44   2.0000      -0.480313       -13.0700
  45   2.0000      -0.467263       -12.7149
  46   2.0000      -0.448759       -12.2114
  47   2.0000      -0.444038       -12.0829
  48   2.0000      -0.437982       -11.9181
  49   2.0000      -0.429460       -11.6862
  50   2.0000      -0.419639       -11.4190
  51   2.0000      -0.414045       -11.2668
  52   2.0000      -0.411121       -11.1872
  53   2.0000      -0.409027       -11.1302
  54   2.0000      -0.406142       -11.0517
  55   2.0000      -0.403501       -10.9798
  56   2.0000      -0.389235       -10.5916
  57   2.0000      -0.384993       -10.4762
  58   2.0000      -0.376170       -10.2361
  59   2.0000      -0.366966        -9.9857
  60   2.0000      -0.356431        -9.6990
  61   2.0000      -0.341174        -9.2838
  62   2.0000      -0.327215        -8.9040
  63   2.0000      -0.309065        -8.4101
  64   2.0000      -0.295150        -8.0314
  65   2.0000      -0.276995        -7.5374
  66   2.0000      -0.265091        -7.2135
  67   2.0000      -0.257596        -7.0096
  68   2.0000      -0.244913        -6.6644
  69   2.0000      -0.219659        -5.9772
  70   0.0000      -0.070659        -1.9227
  71   0.0000      -0.057615        -1.5678
  72   0.0000      -0.016686        -0.4541
  73   0.0000       0.008627         0.2348
  74   0.0000       0.031891         0.8678

MULLIKEN ATOMIC CHARGES
-----------------------
   0 C :   -0.157859
   1 C :   -0.109122
   2 C :   -0.214441
   3 C :    0.171154
   4 C :    0.189387
   5 O :   -0.445045
   6 C :    0.217591
   7 C :   -0.226503
   8 C :   -0.259969
   9 C :    0.084468
  10 C :    0.335046
  11 N :   -0.505865
  12 C :    0.069184
  13 C :   -0.062674
  14 C :   -0.200133
  15 C :    0.670786
  16 O :   -0.617658
  17 N :   -0.216534
  18 C :   -0.248161
  19 C :   -0.260315
  20 H :    0.156872
  21 H :    0.138360
  22 H :    0.137066
  23 H :    0.147156
  24 H :    0.137886
  25 H :    0.138946
  26 H :    0.111374
  27 H :    0.112966
  28 H :    0.114952
  29 H :    0.111931
  30 H :    0.108618
  31 H :    0.119382
  32 H :    0.122089
  33 H :    0.129066
Sum of atomic charges:    0.0000000

LOEWDIN ATOMIC CHARGES
----------------------
   0 C :   -0.104479
   1 C :   -0.126294
   2 C :   -0.099950
   3 C :   -0.126559
   4 C :   -0.030152
   5 O :    0.191537
   6 C :   -0.092201
   7 C :   -0.089253
   8 C :   -0.091138
   9 C :   -0.092770
  10 C :   -0.096235
  11 N :    0.044291
  12 C :   -0.157079
  13 C :   -0.134704
  14 C :   -0.056125
  15 C :   -0.348953
  16 O :   -0.086937
  17 N :    0.083281
  18 C :   -0.213188
  19 C :   -0.217205
  20 H :    0.119225
  21 H :    0.114843
  22 H :    0.113845
  23 H :    0.119244
  24 H :    0.114043
  25 H :    0.114978
  26 H :    0.143161
  27 H :    0.145673
  28 H :    0.142655
  29 H :    0.146667
  30 H :    0.144936
  31 H :    0.133337
  32 H :    0.144064
  33 H :    0.147443

  Mayer bond orders larger than 0.100000
B(  0-C ,  1-C ) :   1.2958 B(  0-C ,  3-C ) :   1.4240 B(  0-C , 27-H ) :   0.9904
B(  1-C ,  2-C ) :   1.4124 B(  1-C , 28-H ) :   0.9905 B(  2-C ,  6-C ) :   1.2622
B(  2-C , 26-H ) :   0.9957 B(  3-C ,  4-C ) :   1.1688 B(  3-C ,  5-O ) :   0.9939
B(  4-C ,  6-C ) :   1.2901 B(  4-C ,  9-C ) :   1.0953 B(  5-O , 15-C ) :   0.9905
B(  6-C ,  7-C ) :   1.1807 B(  7-C ,  8-C ) :   1.4660 B(  7-C , 29-H ) :   1.0069
B(  8-C , 10-C ) :   1.1528 B(  8-C , 30-H ) :   1.0091 B(  9-C , 10-C ) :   1.2728
B(  9-C , 11-N ) :   1.3738 B( 10-C , 14-C ) :   1.2921 B( 11-N , 12-C ) :   1.5283
B( 12-C , 13-C ) :   1.3420 B( 12-C , 31-H ) :   0.9761 B( 13-C , 14-C ) :   1.4484
B( 13-C , 32-H ) :   0.9640 B( 14-C , 33-H ) :   0.9694 B( 15-C , 16-O ) :   1.8244
B( 15-C , 17-N ) :   1.3515 B( 17-N , 18-C ) :   0.9375 B( 17-N , 19-C ) :   0.9420
B( 18-C , 23-H ) :   0.9624 B( 18-C , 24-H ) :   0.9611 B( 18-C , 25-H ) :   0.9613
B( 19-C , 20-H ) :   0.9595 B( 19-C , 21-H ) :   0.9608 B( 19-C , 22-H ) :   0.9609

-----------------------------------------------------------------------------
         ABSORPTION SPECTRUM VIA TRANSITION ELECTRIC DIPOLE MOMENTS
-----------------------------------------------------------------------------
State   Energy    Wavelength  fosc         T2        TX        TY        TZ
        (cm-1)      (nm)                 (au**2)    (au)      (au)      (au)
-----------------------------------------------------------------------------
   1   28056.8    356.4   0.303542084   3.56170   1.45642   1.14337   0.36503

FINAL SINGLE POINT ENERGY      -878.302174583650

DIPOLE MOMENT
-------------
                                X             Y             Z
Electronic contribution:      5.18708      -5.35748      -6.81069
Nuclear contribution   :     -5.74021       3.90019       8.03225
                        -----------------------------------------
Total Dipole Moment    :     -0.55313      -1.45729       1.22156
                        -----------------------------------------
Magnitude (a.u.)       :      1.98037
Magnitude (Debye)      :      5.03370

VIBRATIONAL FREQUENCIES
-----------------------

Scaling factor for frequencies =  1.000000000 (already applied!)

   0:         0.00 cm**-1
   1:         0.00 cm**-1
   2:         0.00 cm**-1
   3:         0.00 cm**-1
   4:         0.00 cm**-1
   5:         0.00 cm**-1
   6:        26.21 cm**-1
   7:        29.38 cm**-1
   8:        37.42 cm**-1
   9:        45.22 cm**-1
  10:        66.35 cm**-1
  11:        90.99 cm**-1
  12:       104.50 cm**-1
  13:       125.50 cm**-1
  14:       182.02 cm**-1
  15:       198.23 cm**-1
  16:       208.53 cm**-1
  17:       234.95 cm**-1
  18:       242.23 cm**-1
  19:       262.03 cm**-1
  20:       344.68 cm**-1
  21:       357.92 cm**-1
  22:       383.59 cm**-1
  23:       402.30 cm**-1
  24:       449.97 cm**-1
  25:       460.75 cm**-1
  26:       472.90 cm**-1
  27:       493.39 cm**-1
  28:       504.95 cm**-1
  29:       525.27 cm**-1
  30:       538.08 cm**-1
  31:       587.94 cm**-1
  32:       603.52 cm**-1
  33:       624.55 cm**-1
  34:       675.39 cm**-1
  35:       685.75 cm**-1
  36:       691.19 cm**-1
  37:       709.46 cm**-1
  38:       739.82 cm**-1
  39:       750.63 cm**-1
  40:       796.30 cm**-1
  41:       808.12 cm**-1
  42:       818.94 cm**-1
  43:       835.64 cm**-1
  44:       837.16 cm**-1
  45:       843.34 cm**-1
  46:       891.73 cm**-1
  47:       914.10 cm**-1
  48:       922.47 cm**-1
  49:       942.74 cm**-1
  50:       970.14 cm**-1
  51:       990.97 cm**-1
  52:      1019.55 cm**-1
  53:      1072.02 cm**-1
  54:      1073.42 cm**-1
  55:      1079.00 cm**-1
  56:      1107.03 cm**-1
  57:      1115.06 cm**-1
  58:      1126.04 cm**-1
  59:      1130.43 cm**-1
  60:      1172.77 cm**-1
  61:      1173.93 cm**-1
  62:      1194.60 cm**-1
  63:      1206.82 cm**-1
  64:      1247.81 cm**-1
  65:      1255.96 cm**-1
  66:      1275.55 cm**-1
  67:      1279.80 cm**-1
  68:      1327.30 cm**-1
  69:      1362.95 cm**-1
  70:      1376.74 cm**-1
  71:      1405.44 cm**-1
  72:      1412.95 cm**-1
  73:      1428.74 cm**-1
  74:      1438.57 cm**-1
  75:      1444.06 cm**-1
  76:      1456.34 cm**-1
  77:      1462.84 cm**-1
  78:      1475.83 cm**-1
  79:      1484.46 cm**-1
  80:      1489.80 cm**-1
  81:      1501.50 cm**-1
  82:      1506.09 cm**-1
  83:      1522.01 cm**-1
  84:      1544.13 cm**-1
  85:      1549.61 cm**-1
  86:      1561.01 cm**-1
  87:      1723.17 cm**-1
  88:      3034.04 cm**-1
  89:      3038.69 cm**-1
  90:      3084.80 cm**-1
  91:      3087.93 cm**-1
  92:      3146.48 cm**-1
  93:      3172.50 cm**-1
  94:      3174.58 cm**-1
  95:      3182.52 cm**-1
  96:      3187.89 cm**-1
  97:      3191.95 cm**-1
  98:      3193.59 cm**-1
  99:      3196.02 cm**-1
 100:      3205.09 cm**-1
 101:      3222.86 cm**-1

IR SPECTRUM
-----------

 Mode   freq       eps      Int      T**2         TX        TY        TZ
       cm**-1   L/(mol*cm) km/mol    a.u.
----------------------------------------------------------------------------
  6:     26.21   0.000205    1.04  0.002438  (-0.022570 -0.006080 -0.043498)
  7:     29.38   0.001090    5.51  0.011575  ( 0.053812  0.079429 -0.048681)
  8:     37.42   0.000588    2.97  0.004900  ( 0.060859  0.027380  0.021123)
  9:     45.22   0.000075    0.38  0.000518  (-0.004408 -0.020148  0.009602)
 10:     66.35   0.000250    1.27  0.001178  ( 0.021891  0.024013  0.011041)
 11:     90.99   0.001592    8.04  0.005459  (-0.001977 -0.032613  0.066269)
 12:    104.50   0.000611    3.09  0.001826  ( 0.020635 -0.025989  0.026915)
 13:    125.50   0.000201    1.01  0.000499  (-0.017763 -0.012042  0.006222)
 14:    182.02   0.000763    3.85  0.001307  (-0.021422  0.009220  0.027632)
 15:    198.23   0.000864    4.37  0.001360  (-0.007515  0.016013 -0.032356)
 16:    208.53   0.002930   14.81  0.004385  (-0.046355  0.047191  0.003079)
 17:    234.95   0.000309    1.56  0.000410  ( 0.016653  0.011343 -0.002056)
 18:    242.23   0.001587    8.02  0.002044  (-0.002890 -0.045070 -0.002098)
 19:    262.03   0.000301    1.52  0.000359  (-0.004160 -0.018241 -0.003004)
 20:    344.68   0.002477   12.52  0.002243  (-0.034696  0.025596  0.019585)
 21:    357.92   0.000226    1.14  0.000197  ( 0.006588 -0.011130 -0.005473)
 22:    383.59   0.001776    8.98  0.001445  ( 0.028183 -0.017447 -0.018610)
 23:    402.30   0.001077    5.44  0.000836  ( 0.013220 -0.020895 -0.014980)
 24:    449.97   0.001609    8.13  0.001116  ( 0.030774 -0.008367  0.009933)
 25:    460.75   0.000102    0.51  0.000069  ( 0.000846 -0.005177 -0.006430)
 26:    472.90   0.002081   10.52  0.001373  ( 0.029430 -0.018341  0.013066)
 27:    493.39   0.002653   13.41  0.001678  (-0.028289  0.022367  0.019433)
 28:    504.95   0.000704    3.56  0.000435  ( 0.013661  0.015021 -0.004800)
 29:    525.27   0.001669    8.43  0.000991  (-0.028566  0.006412  0.011589)
 30:    538.08   0.001368    6.91  0.000793  (-0.026077 -0.008230 -0.006745)
 31:    587.94   0.001526    7.71  0.000810  ( 0.028184  0.001987 -0.003446)
 32:    603.52   0.000922    4.66  0.000477  (-0.008682 -0.018996  0.006375)
 33:    624.55   0.004140   20.92  0.002069  (-0.002294  0.007501  0.044801)
 34:    675.39   0.015862   80.16  0.007329  (-0.008524 -0.049140  0.069580)
 35:    685.75   0.009746   49.25  0.004435  ( 0.034971 -0.050745  0.025245)
 36:    691.19   0.003298   16.67  0.001489  ( 0.015939 -0.012955 -0.032665)
 37:    709.46   0.002184   11.04  0.000961  (-0.007832  0.014773  0.026099)
 38:    739.82   0.008796   44.45  0.003710  ( 0.048397  0.025901 -0.026403)
 39:    750.63   0.004339   21.93  0.001804  ( 0.021271 -0.016213 -0.032993)
 40:    796.30   0.015487   78.27  0.006069  (-0.034009  0.003738  0.069991)
 41:    808.12   0.007760   39.21  0.002997  ( 0.013603 -0.022342  0.048087)
 42:    818.94   0.003038   15.35  0.001158  (-0.023015 -0.001776  0.024994)
 43:    835.64   0.011670   58.98  0.004358  (-0.039461  0.048671 -0.020787)
 44:    837.16   0.000720    3.64  0.000268  (-0.001198  0.002847  0.016087)
 45:    843.34   0.002909   14.70  0.001076  (-0.019336 -0.025299 -0.007902)
 46:    891.73   0.000913    4.61  0.000319  (-0.008807 -0.009523  0.012295)
 47:    914.10   0.000263    1.33  0.000090  ( 0.000807  0.000837  0.009409)
 48:    922.47   0.000001    0.00  0.000000  (-0.000216  0.000432 -0.000234)
 49:    942.74   0.001359    6.87  0.000450  ( 0.004061 -0.017365  0.011475)
 50:    970.14   0.012938   65.38  0.004162  (-0.059099  0.025259 -0.005562)
 51:    990.97   0.014478   73.17  0.004559  (-0.052356  0.039587  0.015839)
 52:   1019.55   0.028755  145.32  0.008801  (-0.056951  0.069545  0.026861)
 53:   1072.02   0.011080   55.99  0.003225  (-0.055819  0.009990 -0.003140)
 54:   1073.42   0.007792   39.38  0.002265  ( 0.020357 -0.041305 -0.012026)
 55:   1079.00   0.022081  111.59  0.006386  ( 0.017853 -0.065075 -0.042810)
 56:   1107.03   0.050343  254.41  0.014191  ( 0.103352 -0.039027 -0.044572)
 57:   1115.06   0.174964  884.20  0.048966  (-0.142602  0.127249  0.111528)
 58:   1126.04   0.000887    4.48  0.000246  (-0.008137  0.008943  0.009985)
 59:   1130.43   0.000384    1.94  0.000106  ( 0.006758 -0.001022  0.007703)
 60:   1172.77   0.001478    7.47  0.000393  ( 0.015618 -0.008680 -0.008610)
 61:   1173.93   0.000605    3.06  0.000161  ( 0.006128 -0.011094 -0.000350)
 62:   1194.60   0.024358  123.10  0.006363  ( 0.064534 -0.036220 -0.029774)
 63:   1206.82   0.005192   26.24  0.001342  ( 0.013692  0.033575  0.005260)
 64:   1247.81   0.039554  199.89  0.009892  ( 0.082374 -0.051811 -0.020548)
 65:   1255.96   0.000046    0.23  0.000011  ( 0.000666 -0.002280 -0.002385)
 66:   1275.55   0.001357    6.86  0.000332  (-0.013221 -0.004202  0.011816)
 67:   1279.80   0.006773   34.23  0.001651  ( 0.014588 -0.032028 -0.020318)
 68:   1327.30   0.014461   73.08  0.003400  (-0.033220  0.040374  0.025813)
 69:   1362.95   0.006813   34.43  0.001560  (-0.030920 -0.023735 -0.006369)
 70:   1376.74   0.001987   10.04  0.000450  ( 0.018342  0.009173  0.005465)
 71:   1405.44   0.008087   40.87  0.001796  (-0.026333  0.026822  0.019561)
 72:   1412.95   0.045696  230.93  0.010092  (-0.075892  0.050526  0.042190)
 73:   1428.74   0.001582    8.00  0.000346  ( 0.012662  0.011943  0.006530)
 74:   1438.57   0.002860   14.45  0.000620  (-0.006748 -0.000334 -0.023974)
 75:   1444.06   0.000673    3.40  0.000145  (-0.004273 -0.010272 -0.004661)
 76:   1456.34   0.011715   59.20  0.002510  (-0.044739  0.022316 -0.003270)
 77:   1462.84   0.004322   21.84  0.000922  (-0.003413 -0.004851 -0.029778)
 78:   1475.83   0.000059    0.30  0.000013  (-0.003301 -0.001073  0.000715)
 79:   1484.46   0.006694   33.83  0.001407  (-0.024294 -0.027070  0.009176)
 80:   1489.80   0.002307   11.66  0.000483  (-0.011876  0.010062 -0.015526)
 81:   1501.50   0.001131    5.71  0.000235  ( 0.015051 -0.000820  0.002795)
 82:   1506.09   0.000729    3.68  0.000151  (-0.011685 -0.003353  0.001782)
 83:   1522.01   0.020896  105.60  0.004284  (-0.054655  0.035957  0.002076)
 84:   1544.13   0.002029   10.25  0.000410  ( 0.000730 -0.018704 -0.007720)
 85:   1549.61   0.004853   24.52  0.000977  (-0.030875 -0.001447  0.004681)
 86:   1561.01   0.004376   22.11  0.000875  (-0.002801 -0.021513 -0.020102)
 87:   1723.17   0.201472  1018.16  0.036486  (-0.019459 -0.027219 -0.188061)
 88:   3034.04   0.006327   31.98  0.000651  (-0.019662  0.015409 -0.005175)
 89:   3038.69   0.018832   95.17  0.001934  ( 0.009561 -0.021964 -0.036880)
 90:   3084.80   0.012503   63.19  0.001265  (-0.022836 -0.025007  0.010865)
 91:   3087.93   0.000676    3.42  0.000068  (-0.005266 -0.005748  0.002743)
 92:   3146.48   0.004720   23.85  0.000468  ( 0.004356 -0.019635 -0.007977)
 93:   3172.50   0.000612    3.09  0.000060  (-0.004716  0.001642 -0.005935)
 94:   3174.58   0.000758    3.83  0.000074  (-0.007244  0.004045  0.002378)
 95:   3182.52   0.001706    8.62  0.000167  (-0.004025  0.011106  0.005266)
 96:   3187.89   0.000336    1.70  0.000033  ( 0.001582 -0.004943 -0.002433)
 97:   3191.95   0.001002    5.06  0.000098  ( 0.007480 -0.006444  0.000704)
 98:   3193.59   0.003121   15.77  0.000305  (-0.009801  0.012597  0.007087)
 99:   3196.02   0.002952   14.92  0.000288  (-0.015272 -0.007131 -0.002022)
100:   3205.09   0.003761   19.00  0.000366  ( 0.005003  0.015878  0.009434)
101:   3222.86   0.000545    2.76  0.000053  (-0.006595  0.000698  0.002970)

--------------------------
THERMOCHEMISTRY AT 298.15K
--------------------------

Temperature         ... 298.15 K
Pressure            ... 1.00 atm
Total Mass          ... 266.30 AMU

Throughout the following assumptions are being made:
  (1) The electronic state is orbitally nondegenerate
  (2) There are no thermally accessible electronically excited states
  (3) Hindered rotations indicated by low frequency modes are not
      treated as such but are treated as vibrations and this may
      cause some error
  (4) All equations used are the standard statistical mechanics
      equations for an ideal gas
  (5) All vibrations are strictly harmonic

freq.      26.21  E(vib)   ...       0.56
freq.      29.38  E(vib)   ...       0.55
freq.      37.42  E(vib)   ...       0.54
freq.      45.22  E(vib)   ...       0.53
freq.      66.35  E(vib)   ...       0.50
freq.      90.99  E(vib)   ...       0.47
freq.     104.50  E(vib)   ...       0.46
freq.     125.50  E(vib)   ...       0.43
freq.     182.02  E(vib)   ...       0.37
freq.     198.23  E(vib)   ...       0.35
freq.     208.53  E(vib)   ...       0.34
freq.     234.95  E(vib)   ...       0.32
freq.     242.23  E(vib)   ...       0.31
freq.     262.03  E(vib)   ...       0.29
freq.     344.68  E(vib)   ...       0.23
freq.     357.92  E(vib)   ...       0.22
freq.     383.59  E(vib)   ...       0.20
freq.     402.30  E(vib)   ...       0.19
freq.     449.97  E(vib)   ...       0.17
freq.     460.75  E(vib)   ...       0.16
freq.     472.90  E(vib)   ...       0.15
freq.     493.39  E(vib)   ...       0.14
freq.     504.95  E(vib)   ...       0.14
freq.     525.27  E(vib)   ...       0.13
freq.     538.08  E(vib)   ...       0.12
freq.     587.94  E(vib)   ...       0.10
freq.     603.52  E(vib)   ...       0.10
freq.     624.55  E(vib)   ...       0.09
freq.     675.39  E(vib)   ...       0.08
freq.     685.75  E(vib)   ...       0.07
freq.     691.19  E(vib)   ...       0.07
freq.     709.46  E(vib)   ...       0.07
freq.     739.82  E(vib)   ...       0.06
freq.     750.63  E(vib)   ...       0.06
freq.     796.30  E(vib)   ...       0.05
freq.     808.12  E(vib)   ...       0.05
freq.     818.94  E(vib)   ...       0.05
freq.     835.64  E(vib)   ...       0.04
freq.     837.16  E(vib)   ...       0.04
freq.     843.34  E(vib)   ...       0.04
freq.     891.73  E(vib)   ...       0.03
freq.     914.10  E(vib)   ...       0.03
freq.     922.47  E(vib)   ...       0.03
freq.     942.74  E(vib)   ...       0.03
freq.     970.14  E(vib)   ...       0.03
freq.     990.97  E(vib)   ...       0.02
freq.    1019.55  E(vib)   ...       0.02
freq.    1072.02  E(vib)   ...       0.02
freq.    1073.42  E(vib)   ...       0.02
freq.    1079.00  E(vib)   ...       0.02
freq.    1107.03  E(vib)   ...       0.02
freq.    1115.06  E(vib)   ...       0.01
freq.    1126.04  E(vib)   ...       0.01
freq.    1130.43  E(vib)   ...       0.01
freq.    1172.77  E(vib)   ...       0.01
freq.    1173.93  E(vib)   ...       0.01
freq.    1194.60  E(vib)   ...       0.01
freq.    1206.82  E(vib)   ...       0.01
freq.    1247.81  E(vib)   ...       0.01
freq.    1255.96  E(vib)   ...       0.01
freq.    1275.55  E(vib)   ...       0.01
freq.    1279.80  E(vib)   ...       0.01
freq.    1327.30  E(vib)   ...       0.01
freq.    1362.95  E(vib)   ...       0.01
freq.    1376.74  E(vib)   ...       0.01
freq.    1405.44  E(vib)   ...       0.00
freq.    1412.95  E(vib)   ...       0.00
freq.    1428.74  E(vib)   ...       0.00
freq.    1438.57  E(vib)   ...       0.00
freq.    1444.06  E(vib)   ...       0.00
freq.    1456.34  E(vib)   ...       0.00
freq.    1462.84  E(vib)   ...       0.00
freq.    1475.83  E(vib)   ...       0.00
freq.    1484.46  E(vib)   ...       0.00
freq.    1489.80  E(vib)   ...       0.00
freq.    1501.50  E(vib)   ...       0.00
freq.    1506.09  E(vib)   ...       0.00
freq.    1522.01  E(vib)   ...       0.00
freq.    1544.13  E(vib)   ...       0.00
freq.    1549.61  E(vib)   ...       0.00
freq.    1561.01  E(vib)   ...       0.00
freq.    1723.17  E(vib)   ...       0.00
freq.    3034.04  E(vib)   ...       0.00
freq.    3038.69  E(vib)   ...       0.00
freq.    3084.80  E(vib)   ...       0.00
freq.    3087.93  E(vib)   ...       0.00
freq.    3146.48  E(vib)   ...       0.00
freq.    3172.50  E(vib)   ...       0.00
freq.    3174.58  E(vib)   ...       0.00
freq.    3182.52  E(vib)   ...       0.00
freq.    3187.89  E(vib)   ...       0.00
freq.    3191.95  E(vib)   ...       0.00
freq.    3193.59  E(vib)   ...       0.00
freq.    3196.02  E(vib)   ...       0.00
freq.    3205.09  E(vib)   ...       0.00
freq.    3222.86  E(vib)   ...       0.00

------------
INNER ENERGY
------------

The inner energy is: U= E(el) + E(ZPE) + E(vib) + E(rot) + E(trans)
    E(el)   - is the total energy from the electronic structure calculation
              = E(kin-el) + E(nuc-el) + E(el-el) + E(nuc-nuc)
    E(ZPE)  - the the zero temperature vibrational energy from the frequency calculation
    E(vib)  - the the finite temperature correction to E(ZPE) due to population
              of excited vibrational states
    E(rot)  - is the rotational thermal energy
    E(trans)- is the translational thermal energy

Summary of contributions to the inner energy U:
Electronic energy                ...   -878.30217404 Eh
Zero point energy                ...      0.26324119 Eh     165.19 kcal/mol
Thermal vibrational correction   ...      0.01487430 Eh       9.33 kcal/mol
Thermal rotational correction    ...      0.00141627 Eh       0.89 kcal/mol
Thermal translational correction ...      0.00141627 Eh       0.89 kcal/mol
-----------------------------------------------------------------------
Total thermal energy                   -878.02122600 Eh

Summary of corrections to the electronic energy:
(perhaps to be used in another calculation)
Total thermal correction                  0.01770684 Eh      11.11 kcal/mol
Non-thermal (ZPE) correction              0.26324119 Eh     165.19 kcal/mol
-----------------------------------------------------------------------
Total correction                          0.28094803 Eh     176.30 kcal/mol

--------
ENTHALPY
--------

The enthalpy is H = U + kB*T
                kB is Boltzmann's constant
Total free energy                 ...   -878.02122600 Eh
Thermal Enthalpy correction       ...      0.00094421 Eh       0.59 kcal/mol
-----------------------------------------------------------------------
Total Enthalpy                    ...   -878.02028179 Eh

Note: Only C1 symmetry has been detected, increase convergence thresholds
      if your molecule has a higher symmetry. Symmetry factor of 1.0 is
      used for the rotational entropy correction.

Rotational constants in cm-1:     0.017018     0.009422     0.006469

                             ****ORCA TERMINATED NORMALLY****
TOTAL RUN TIME: 4 days 7 hours 56 minutes 25 seconds 934 msec
