                         Program Version 6.0.1  -  RELEASE   -
|  1> ! CAM-B3LYP  OPT Def2-TZVP(-f) Def2-TZVP/C Def2/J RIJCOSX TightSCF CPCM(Water) AllPop SOSCF
|  2> %pal nprocs 200 end
|  3>
|  4> %tddft
|  5>     NRoots 3
|  6>     IRoot 1
|  7> end
|  8>
|  9> * xyz 1 1
| 10>   C          -4.64237910852225      0.90074384004881      0.69917274405417
| 11>   C          -5.28156605303999      0.13075979146694      1.66926122027777
| 12>   C          -4.54327396904873     -0.58564748494885      2.58095448007522
| 13>   C          -3.27169649488025      1.04206555695424      0.71731868509203
| 14>   C          -2.50490957418674      0.44287658543326      1.73623715227843
| 15>   O          -2.68678927742325      1.72050041693409     -0.34082336205659
| 16>   C          -3.14704102151241     -0.47729835550569      2.60670096840364
| 17>   C          -2.35090670614830     -1.32666462810763      3.43153399565577
| 18>   C          -1.00115563821095     -1.33204155425670      3.33440369538189
| 19>   C          -1.09869595293440      0.62820532834421      1.87162367844322
| 20>   C          -0.32771096089364     -0.35231743115527      2.54805006485395
| 21>   N          -0.47293660610577      1.73647336116021      1.39972954884455
| 22>   C           0.86296010680084      1.78051083224486      1.29545115090857
| 23>   C           1.65655212667705      0.74786517987797      1.74421645237403
| 24>   C           1.06488637947183     -0.28572203479121      2.45028443683986
| 25>   C          -1.78157991538960      1.02758686605176     -1.11905031660665
| 26>   O          -1.18429128302571      0.04620535479227     -0.70504355287978
| 27>   N          -1.63411306246985      1.55542847351298     -2.32815911017253
| 28>   C          -2.45016661087072      2.61407025947913     -2.87922776676178
| 29>   C          -0.65892248815788      0.99497352147798     -3.23942826292462
| 30>   H          -1.15889804744480      0.61268583660677     -4.12964680554221
| 31>   H          -0.13270428456686      0.18147600397307     -2.74593224432684
| 32>   H           0.05074679058701      1.76817749387824     -3.53290699134358
| 33>   H          -1.80958229060585      3.42949734444561     -3.21186042010690
| 34>   H          -3.14960658890291      2.97901861239857     -2.13532977423722
| 35>   H          -3.00235550656319      2.22971024245868     -3.73878867080728
| 36>   H          -5.02787309335558     -1.25778000926102      3.27091926785276
| 37>   H          -5.20681028425261      1.37737101356815     -0.08604517254295
| 38>   H          -6.35693580598722      0.05545275142508      1.65676367445054
| 39>   H          -2.86207045802463     -2.01786051316972      4.08256051359162
| 40>   H          -0.40181416615686     -2.04738284958866      3.87352204674550
| 41>   H           1.26733417043888      2.68919133486208      0.87643728032925
| 42>   H           2.72402744321644      0.79562499354649      1.60924665224891
| 43>   H           1.66579869206859     -1.03756973084835      2.93812776490475
| 44>   P          -1.25452980131769      3.31777159255318      1.41201637350149
| 45>   O          -2.65031317320355      3.37296121406261      1.84379138874734
| 46>   O          -0.82485039090071      3.80959601939058     -0.01244383810532
| 47>   O          -0.25870018084975      4.07670597101606      2.38844167905458
| 48>   C          -1.43270605737680      4.99379673134970     -0.56521341753450
| 49>   C          -0.59380089737657      4.26918208306195      3.76697768564561
| 50>   C          -1.13528219657633      6.23005767178507      0.25872582731228
| 51>   H          -2.51183885179510      4.83396710307569     -0.63021759430296
| 52>   H          -1.00392231114490      5.07444182096507     -1.56461691913453
| 53>   H          -1.61548657995453      6.15525994462814      1.23308778803460
| 54>   H          -1.52054485430823      7.10588064594018     -0.25543485710295
| 55>   H          -0.06383439506726      6.34499334689063      0.40206198579419
| 56>   C          -0.41670245963031      2.99448517532026      4.56968357025510
| 57>   H          -1.62793608238993      4.61875702976842      3.83355019064643
| 58>   H           0.08277751455627      5.05358191343974      4.10993769201413
| 59>   H           0.58699616911074      2.59850655009821      4.43714674425446
| 60>   H          -1.14587273499175      2.25025837538734      4.25268354079607
| 61>   H          -0.57528318879543      3.20867042401483      5.62239913172421
| 62> *
| 63>
| 64>
| 65>                          ****END OF INPUT****
 Total Charge           Charge          ....    1
 Multiplicity           Mult            ....    1
 Number of Electrons    NEL             ....  212
FINAL SINGLE POINT ENERGY     -1603.256624352504
FINAL SINGLE POINT ENERGY     -1603.269949845594
FINAL SINGLE POINT ENERGY     -1603.274174278501
FINAL SINGLE POINT ENERGY     -1603.276237138518
FINAL SINGLE POINT ENERGY     -1603.277175918004
FINAL SINGLE POINT ENERGY     -1603.277898440378
FINAL SINGLE POINT ENERGY     -1603.278245085903
FINAL SINGLE POINT ENERGY     -1603.278474231193
FINAL SINGLE POINT ENERGY     -1603.278777799919
FINAL SINGLE POINT ENERGY     -1603.279143345226
FINAL SINGLE POINT ENERGY     -1603.281516954683
FINAL SINGLE POINT ENERGY     -1603.281499285305
FINAL SINGLE POINT ENERGY     -1603.281498503725
FINAL SINGLE POINT ENERGY     -1603.281499458373
FINAL SINGLE POINT ENERGY     -1603.281495373633
FINAL SINGLE POINT ENERGY     -1603.281504397636
FINAL SINGLE POINT ENERGY     -1603.281499050987
FINAL SINGLE POINT ENERGY     -1603.281497606410
FINAL SINGLE POINT ENERGY     -1603.281500045252
                    ***********************HURRAY********************

CARTESIAN COORDINATES (ANGSTROEM)
---------------------------------
  C     -4.789863    0.283863    0.472230
  C     -5.378192   -0.565739    1.387967
  C     -4.582142   -1.140633    2.362409
  C     -3.430160    0.608777    0.553446
  C     -2.630470    0.175959    1.630624
  O     -2.964582    1.340946   -0.480361
  C     -3.216436   -0.809256    2.478608
  C     -2.418935   -1.464494    3.427960
  C     -1.070576   -1.200997    3.510524
  C     -1.314841    0.598171    1.902954
  C     -0.476906   -0.184213    2.735744
  N     -0.776680    1.786057    1.371651
  C      0.612325    1.839988    1.214365
  C      1.437708    0.992448    1.876474
  C      0.906093    0.035003    2.746936
  C     -1.896311    0.884071   -1.253165
  O     -1.329669   -0.152657   -0.997975
  N     -1.641291    1.720178   -2.256967
  C     -2.453289    2.874077   -2.610094
  C     -0.602596    1.364999   -3.210018
  H     -1.047881    1.004701   -4.139302
  H      0.031779    0.592120   -2.791564
  H     -0.005489    2.249655   -3.426154
  H     -1.794600    3.720307   -2.799488
  H     -3.133035    3.130943   -1.809058
  H     -3.020930    2.661275   -3.517721
  H     -4.996940   -1.857167    3.058512
  H     -5.350802    0.689487   -0.358492
  H     -6.427130   -0.811227    1.313394
  H     -2.865972   -2.218257    4.061968
  H     -0.446494   -1.767603    4.188709
  H      0.974986    2.629747    0.574004
  H      2.504569    1.091512    1.738747
  H      1.539864   -0.567815    3.380005
  P     -1.564375    3.300766    1.561408
  O     -2.971780    3.141529    1.926899
  O     -1.186224    3.947877    0.192915
  O     -0.697374    4.124354    2.581993
  C     -1.300306    5.379589   -0.062412
  C     -1.042027    4.268061    3.989483
  C     -0.078531    5.827991   -0.815981
  H     -1.399461    5.904432    0.885754
  H     -2.210271    5.516337   -0.642329
  H      0.820277    5.685854   -0.216683
  H     -0.173220    6.888037   -1.053111
  H      0.025720    5.273983   -1.748621
  C     -0.162277    3.393531    4.842631
  H     -2.096430    4.031607    4.113844
  H     -0.889714    5.322419    4.207385
  H      0.889770    3.630310    4.686664
  H     -0.323321    2.338217    4.623545
  H     -0.401880    3.565941    5.892592

 Multiplicity           Mult            ....    1
 Number of Electrons    NEL             ....  212
 Basis Dimension        Dim             ....  822

ORBITAL ENERGIES
----------------

  NO   OCC          E(Eh)            E(eV)
   0   2.0000     -77.290611     -2103.1845
   1   2.0000     -19.262729      -524.1655
   2   2.0000     -19.253375      -523.9110
   3   2.0000     -19.253027      -523.9015
   4   2.0000     -19.187503      -522.1185
   5   2.0000     -19.187392      -522.1155
   6   2.0000     -14.500702      -394.5842
   7   2.0000     -14.435384      -392.8068
   8   2.0000     -10.411976      -283.3243
   9   2.0000     -10.358452      -281.8678
  10   2.0000     -10.350009      -281.6381
  11   2.0000     -10.341671      -281.4112
  12   2.0000     -10.321485      -280.8619
  13   2.0000     -10.314549      -280.6732
  14   2.0000     -10.311618      -280.5934
  15   2.0000     -10.303914      -280.3838
  16   2.0000     -10.293920      -280.1118
  17   2.0000     -10.291710      -280.0517
  18   2.0000     -10.289798      -279.9996
  19   2.0000     -10.276314      -279.6327
  20   2.0000     -10.273879      -279.5665
  21   2.0000     -10.273109      -279.5455
  22   2.0000     -10.272666      -279.5335
  23   2.0000     -10.271118      -279.4913
  24   2.0000     -10.265002      -279.3249
  25   2.0000     -10.264526      -279.3119
  26   2.0000     -10.238930      -278.6155
  27   2.0000     -10.238437      -278.6020
  28   2.0000      -6.759281      -183.9294
  29   2.0000      -4.922865      -133.9580
  30   2.0000      -4.922117      -133.9376
  31   2.0000      -4.920550      -133.8950
  32   2.0000      -1.219992       -33.1977
  33   2.0000      -1.201120       -32.6841
  34   2.0000      -1.141443       -31.0603
  35   2.0000      -1.127848       -30.6903
  36   2.0000      -1.110276       -30.2121
  37   2.0000      -1.077780       -29.3279
  38   2.0000      -1.045096       -28.4385
  39   2.0000      -0.995228       -27.0815
  40   2.0000      -0.958407       -26.0796
  41   2.0000      -0.928824       -25.2746
  42   2.0000      -0.894447       -24.3391
  43   2.0000      -0.871268       -23.7084
  44   2.0000      -0.862579       -23.4720
  45   2.0000      -0.853749       -23.2317
  46   2.0000      -0.845149       -22.9977
  47   2.0000      -0.808643       -22.0043
  48   2.0000      -0.802036       -21.8245
  49   2.0000      -0.786510       -21.4020
  50   2.0000      -0.762806       -20.7570
  51   2.0000      -0.751626       -20.4528
  52   2.0000      -0.734116       -19.9763
  53   2.0000      -0.721120       -19.6227
  54   2.0000      -0.717954       -19.5365
  55   2.0000      -0.683621       -18.6023
  56   2.0000      -0.672532       -18.3005
  57   2.0000      -0.648596       -17.6492
  58   2.0000      -0.636643       -17.3239
  59   2.0000      -0.623533       -16.9672
  60   2.0000      -0.620540       -16.8858
  61   2.0000      -0.618050       -16.8180
  62   2.0000      -0.613809       -16.7026
  63   2.0000      -0.586843       -15.9688
  64   2.0000      -0.585129       -15.9222
  65   2.0000      -0.583402       -15.8752
  66   2.0000      -0.573439       -15.6041
  67   2.0000      -0.565797       -15.3961
  68   2.0000      -0.557493       -15.1702
  69   2.0000      -0.551375       -15.0037
  70   2.0000      -0.542137       -14.7523
  71   2.0000      -0.538362       -14.6496
  72   2.0000      -0.533873       -14.5274
  73   2.0000      -0.526139       -14.3170
  74   2.0000      -0.521842       -14.2000
  75   2.0000      -0.518428       -14.1071
  76   2.0000      -0.511574       -13.9206
  77   2.0000      -0.503883       -13.7114
  78   2.0000      -0.497206       -13.5297
  79   2.0000      -0.490149       -13.3376
  80   2.0000      -0.482808       -13.1379
  81   2.0000      -0.480766       -13.0823
  82   2.0000      -0.476827       -12.9751
  83   2.0000      -0.473400       -12.8819
  84   2.0000      -0.471697       -12.8355
  85   2.0000      -0.469158       -12.7664
  86   2.0000      -0.463615       -12.6156
  87   2.0000      -0.456459       -12.4209
  88   2.0000      -0.451515       -12.2864
  89   2.0000      -0.449261       -12.2250
  90   2.0000      -0.447217       -12.1694
  91   2.0000      -0.442007       -12.0276
  92   2.0000      -0.434244       -11.8164
  93   2.0000      -0.425037       -11.5658
  94   2.0000      -0.416909       -11.3447
  95   2.0000      -0.413131       -11.2419
  96   2.0000      -0.407215       -11.0809
  97   2.0000      -0.404410       -11.0046
  98   2.0000      -0.396992       -10.8027
  99   2.0000      -0.391847       -10.6627
 100   2.0000      -0.384022       -10.4498
 101   2.0000      -0.369272       -10.0484
 102   2.0000      -0.355891        -9.6843
 103   2.0000      -0.324907        -8.8412
 104   2.0000      -0.322394        -8.7728
 105   2.0000      -0.285604        -7.7717
 106   0.0000      -0.097962        -2.6657
 107   0.0000      -0.039604        -1.0777
 108   0.0000       0.004982         0.1356
 109   0.0000       0.034199         0.9306
 110   0.0000       0.060718         1.6522

----------------------------------------------------------------------------------------------------
                     ABSORPTION SPECTRUM VIA TRANSITION ELECTRIC DIPOLE MOMENTS
----------------------------------------------------------------------------------------------------
     Transition      Energy     Energy  Wavelength fosc(D2)      D2        DX        DY        DZ
                      (eV)      (cm-1)    (nm)                 (au**2)    (au)      (au)      (au)
----------------------------------------------------------------------------------------------------
  0-1A  ->  1-1A    2.747876   22163.1   451.2   0.203946763   3.02943   1.56925  -0.07550   0.74913
  0-1A  ->  2-1A    3.469280   27981.6   357.4   0.203912757   2.39909   1.21834   0.94606  -0.14043
  0-1A  ->  3-1A    4.024172   32457.1   308.1   0.030682382   0.31121  -0.38584  -0.18281   0.35905

MULLIKEN ATOMIC CHARGES
-----------------------
   0 C :   -0.144509
   1 C :   -0.110168
   2 C :   -0.097500
   3 C :    0.337949
   4 C :    0.134075
   5 O :   -0.487846
   6 C :    0.123520
   7 C :   -0.128178
   8 C :   -0.177397
   9 C :    0.069613
  10 C :    0.257693
  11 N :   -0.347571
  12 C :   -0.037018
  13 C :   -0.065188
  14 C :   -0.242164
  15 C :    0.726362
  16 O :   -0.584905
  17 N :   -0.228038
  18 C :   -0.307621
  19 C :   -0.280162
  20 H :    0.156854
  21 H :    0.159297
  22 H :    0.156243
  23 H :    0.162810
  24 H :    0.168705
  25 H :    0.165342
  26 H :    0.164662
  27 H :    0.163977
  28 H :    0.150767
  29 H :    0.156994
  30 H :    0.155167
  31 H :    0.192801
  32 H :    0.144007
  33 H :    0.150420
  34 P :    1.657838
  35 O :   -0.816488
  36 O :   -0.553852
  37 O :   -0.547261
  38 C :   -0.025520
  39 C :   -0.027696
  40 C :   -0.398813
  41 H :    0.148652
  42 H :    0.150613
  43 H :    0.138651
  44 H :    0.151647
  45 H :    0.142813
  46 C :   -0.388056
  47 H :    0.137746
  48 H :    0.144759
  49 H :    0.134570
  50 H :    0.140317
  51 H :    0.151088
Sum of atomic charges:    1.0000000

LOEWDIN ATOMIC CHARGES
----------------------
   0 C :   -0.019869
   1 C :   -0.097652
   2 C :    0.008952
   3 C :   -0.085310
   4 C :   -0.043532
   5 O :    0.215705
   6 C :   -0.075601
   7 C :   -0.013118
   8 C :   -0.006661
   9 C :   -0.039017
  10 C :   -0.095131
  11 N :    0.014737
  12 C :   -0.114987
  13 C :   -0.134229
  14 C :   -0.071674
  15 C :   -0.343591
  16 O :   -0.048539
  17 N :    0.094367
  18 C :   -0.220143
  19 C :   -0.212586
  20 H :    0.118839
  21 H :    0.123358
  22 H :    0.120795
  23 H :    0.120094
  24 H :    0.122106
  25 H :    0.118755
  26 H :    0.164826
  27 H :    0.164754
  28 H :    0.156955
  29 H :    0.164748
  30 H :    0.163949
  31 H :    0.151311
  32 H :    0.156720
  33 H :    0.154081
  34 P :    0.745625
  35 O :   -0.436820
  36 O :   -0.095143
  37 O :   -0.105966
  38 C :   -0.237358
  39 C :   -0.238634
  40 C :   -0.282118
  41 H :    0.123966
  42 H :    0.125344
  43 H :    0.117871
  44 H :    0.127013
  45 H :    0.117002
  46 C :   -0.283127
  47 H :    0.120605
  48 H :    0.126027
  49 H :    0.118185
  50 H :    0.117405
  51 H :    0.126711

  Mayer bond orders larger than 0.100000
B(  0-C ,  1-C ) :   1.3477 B(  0-C ,  3-C ) :   1.3395 B(  0-C , 27-H ) :   0.9740
B(  1-C ,  2-C ) :   1.3087 B(  1-C , 28-H ) :   0.9876 B(  2-C ,  6-C ) :   1.2227
B(  2-C , 26-H ) :   0.9658 B(  3-C ,  4-C ) :   1.2081 B(  3-C ,  5-O ) :   0.8717
B(  4-C ,  6-C ) :   1.2867 B(  4-C ,  9-C ) :   1.2231 B(  4-C , 11-N ) :   0.1118
B(  5-O , 15-C ) :   0.9251 B(  6-C ,  7-C ) :   1.2582 B(  7-C ,  8-C ) :   1.3294
B(  7-C , 29-H ) :   0.9756 B(  8-C , 10-C ) :   1.2005 B(  8-C , 30-H ) :   0.9824
B(  9-C , 10-C ) :   1.2549 B(  9-C , 11-N ) :   0.9843 B( 10-C , 14-C ) :   1.2993
B( 11-N , 12-C ) :   1.0953 B( 11-N , 34-P ) :   0.8020 B( 12-C , 13-C ) :   1.5744
B( 12-C , 31-H ) :   0.9457 B( 13-C , 14-C ) :   1.2278 B( 13-C , 32-H ) :   0.9742
B( 14-C , 33-H ) :   0.9704 B( 15-C , 16-O ) :   1.8510 B( 15-C , 17-N ) :   1.3763
B( 17-N , 18-C ) :   0.9257 B( 17-N , 19-C ) :   0.9286 B( 18-C , 23-H ) :   0.9626
B( 18-C , 24-H ) :   0.9608 B( 18-C , 25-H ) :   0.9557 B( 19-C , 20-H ) :   0.9626
B( 19-C , 21-H ) :   0.9635 B( 19-C , 22-H ) :   0.9608 B( 34-P , 35-O ) :   1.7262
B( 34-P , 36-O ) :   1.0528 B( 34-P , 37-O ) :   1.0247 B( 36-O , 38-C ) :   0.8392
B( 37-O , 39-C ) :   0.8691 B( 38-C , 40-C ) :   0.9932 B( 38-C , 41-H ) :   0.9533
B( 38-C , 42-H ) :   0.9681 B( 39-C , 46-C ) :   0.9878 B( 39-C , 47-H ) :   0.9687
B( 39-C , 48-H ) :   0.9622 B( 40-C , 43-H ) :   0.9728 B( 40-C , 44-H ) :   0.9675
B( 40-C , 45-H ) :   0.9739 B( 46-C , 49-H ) :   0.9727 B( 46-C , 50-H ) :   0.9686
B( 46-C , 51-H ) :   0.9662

FINAL SINGLE POINT ENERGY     -1603.281505525197

DIPOLE MOMENT
-------------

Method             : TDA/CIS
Type of density    : Electron Density
Level              : Relaxed density
State              :   1
Multiplicity       :   1
Irrep              :   0
Energy             :     0.0000000000000000 Eh
Relativity type    :
Basis              : AO
                                X                 Y                 Z
Electronic contribution:     -9.273740643     -15.730969143       6.389530806
Nuclear contribution   :      9.121354654      15.352590361      -5.755365028
                        -----------------------------------------
Total Dipole Moment    :     -0.152385989      -0.378378783       0.634165778
                        -----------------------------------------
Magnitude (a.u.)       :      0.754028001
Magnitude (Debye)      :      1.916586866

Rotational constants in cm-1:             0.007228             0.006223             0.004737
Rotational constants in MHz :           216.697945           186.573512           141.999244

                             ****ORCA TERMINATED NORMALLY****
TOTAL RUN TIME: 3 days 0 hours 34 minutes 29 seconds 949 msec
