                         Program Version 5.0.4 -  RELEASE  -
|  1> ! B3LYP/G FREQ Def2-TZVP(-f) Def2-TZVP/C Def2/J RIJCOSX TightSCF CPCM(Water) AllPop SOSCF
|  2>
|  3> * xyz 1 1
|  4>   C   -3.01702790775114     -0.84514476634390      0.12957078983516
|  5>   C   -2.56834167641945     -1.87168481643337     -0.70651470281704
|  6>   C   -1.27466347952566     -1.86754735564888     -1.17360434664761
|  7>   C   -2.17076631829237      0.17991799970713      0.48391261263324
|  8>   C   -0.82605043383854      0.21740449786757      0.03942599316776
|  9>   O   -2.61701385884328      1.16243586308769      1.35849640776159
| 10>   C   -0.38624596360050     -0.84007305502502     -0.81255310095355
| 11>   C   0.95633399035683     -0.85677031968754     -1.30841131280784
| 12>   C   1.84362239640369      0.11407723490934     -0.99362325501502
| 13>   C   0.13997808553778      1.23031723957669      0.37663275551036
| 14>   C   1.45819552475718      1.18821236494597     -0.13667094398183
| 15>   N   -0.16520440635224      2.26560451897377      1.20771289876579
| 16>   C   0.68195853278582      3.23669674806510      1.55149595037176
| 17>   C   1.97461010867338      3.23550371047868      1.05799924611902
| 18>   C   2.35593372969712      2.20822178427984      0.21948344407345
| 19>   C   -3.76258664106815      1.89746342976417      1.00841642707208
| 20>   O   -4.17709062191754      1.91832268410798     -0.13305089679644
| 21>   N   -4.25744186614365      2.55606554957414      2.06303077203014
| 22>   C   -5.36110402650877      3.49084571139698      1.86226291202136
| 23>   C   -3.77425715657713      2.43269514623701      3.43703156703941
| 24>   H   -3.11276030804584      1.58073949409095      3.53887911628619
| 25>   H   -4.63270058306687      2.29543337230213      4.09583278477734
| 26>   H   -3.24716522270643      3.34145469862870      3.73593237898693
| 27>   H   -5.57136393818305      3.58849900158363      0.80286004866652
| 28>   H   -5.08751745343689      4.46518324606206      2.27082299621717
| 29>   H   -6.25322045348352      3.13117001672022      2.37882917192891
| 30>   H   -0.91967850108308     -2.65759796532696     -1.82220280993340
| 31>   H   -4.03118654807741     -0.84753217114517      0.50371556918027
| 32>   H   -3.24697209952434     -2.66907476871570     -0.97896337900189
| 33>   H   1.24548778858810     -1.67623876422422     -1.95393946954274
| 34>   H   2.85595049516685      0.09800300229614     -1.37510673116412
| 35>   H   0.29621092925558      3.99102366369855      2.22108492349752
| 36>   H   2.65609448900128      4.02472750966881      1.33782082960180
| 37>   H   3.36268174798186      2.17396042766826     -0.17767311464768
| 38>   H   -1.10562835375948      2.27847506685917      1.59286446776533
| 39> *
| 40>
| 41>
| 42>                          ****END OF INPUT****

CARTESIAN COORDINATES (ANGSTROEM)
---------------------------------
  C     -3.017028   -0.845145    0.129571
  C     -2.568342   -1.871685   -0.706515
  C     -1.274663   -1.867547   -1.173604
  C     -2.170766    0.179918    0.483913
  C     -0.826050    0.217404    0.039426
  O     -2.617014    1.162436    1.358496
  C     -0.386246   -0.840073   -0.812553
  C      0.956334   -0.856770   -1.308411
  C      1.843622    0.114077   -0.993623
  C      0.139978    1.230317    0.376633
  C      1.458196    1.188212   -0.136671
  N     -0.165204    2.265605    1.207713
  C      0.681959    3.236697    1.551496
  C      1.974610    3.235504    1.057999
  C      2.355934    2.208222    0.219483
  C     -3.762587    1.897463    1.008416
  O     -4.177091    1.918323   -0.133051
  N     -4.257442    2.556066    2.063031
  C     -5.361104    3.490846    1.862263
  C     -3.774257    2.432695    3.437032
  H     -3.112760    1.580739    3.538879
  H     -4.632701    2.295433    4.095833
  H     -3.247165    3.341455    3.735932
  H     -5.571364    3.588499    0.802860
  H     -5.087517    4.465183    2.270823
  H     -6.253220    3.131170    2.378829
  H     -0.919679   -2.657598   -1.822203
  H     -4.031187   -0.847532    0.503716
  H     -3.246972   -2.669075   -0.978963
  H      1.245488   -1.676239   -1.953939
  H      2.855950    0.098003   -1.375107
  H      0.296211    3.991024    2.221085
  H      2.656094    4.024728    1.337821
  H      3.362682    2.173960   -0.177673
  H     -1.105628    2.278475    1.592864

 Total Charge           Charge          ....    1
 Multiplicity           Mult            ....    1
 Number of Electrons    NEL             ....  140
 Basis Dimension        Dim             ....  570

ORBITAL ENERGIES
----------------

  NO   OCC          E(Eh)            E(eV)
   0   2.0000     -19.201667      -522.5039
   1   2.0000     -19.117859      -520.2234
   2   2.0000     -14.427879      -392.6025
   3   2.0000     -14.368841      -390.9960
   4   2.0000     -10.338571      -281.3268
   5   2.0000     -10.275941      -279.6226
   6   2.0000     -10.269275      -279.4412
   7   2.0000     -10.265831      -279.3475
   8   2.0000     -10.229531      -278.3597
   9   2.0000     -10.228935      -278.3435
  10   2.0000     -10.227170      -278.2954
  11   2.0000     -10.217407      -278.0298
  12   2.0000     -10.215731      -277.9842
  13   2.0000     -10.205924      -277.7173
  14   2.0000     -10.203493      -277.6512
  15   2.0000     -10.201618      -277.6001
  16   2.0000     -10.200592      -277.5722
  17   2.0000     -10.198269      -277.5090
  18   2.0000     -10.196971      -277.4737
  19   2.0000     -10.193302      -277.3738
  20   2.0000      -1.134237       -30.8642
  21   2.0000      -1.047761       -28.5110
  22   2.0000      -1.037211       -28.2240
  23   2.0000      -0.962791       -26.1989
  24   2.0000      -0.908189       -24.7131
  25   2.0000      -0.871694       -23.7200
  26   2.0000      -0.845439       -23.0056
  27   2.0000      -0.813083       -22.1251
  28   2.0000      -0.780268       -21.2322
  29   2.0000      -0.767526       -20.8855
  30   2.0000      -0.731873       -19.9153
  31   2.0000      -0.725733       -19.7482
  32   2.0000      -0.697156       -18.9706
  33   2.0000      -0.688641       -18.7389
  34   2.0000      -0.669118       -18.2076
  35   2.0000      -0.649633       -17.6774
  36   2.0000      -0.608390       -16.5551
  37   2.0000      -0.596220       -16.2240
  38   2.0000      -0.559340       -15.2204
  39   2.0000      -0.554179       -15.0800
  40   2.0000      -0.548027       -14.9126
  41   2.0000      -0.541559       -14.7366
  42   2.0000      -0.512011       -13.9325
  43   2.0000      -0.509566       -13.8660
  44   2.0000      -0.502616       -13.6769
  45   2.0000      -0.495823       -13.4920
  46   2.0000      -0.488353       -13.2888
  47   2.0000      -0.479971       -13.0607
  48   2.0000      -0.468107       -12.7378
  49   2.0000      -0.457936       -12.4611
  50   2.0000      -0.457530       -12.4500
  51   2.0000      -0.445847       -12.1321
  52   2.0000      -0.433507       -11.7963
  53   2.0000      -0.429714       -11.6931
  54   2.0000      -0.415811       -11.3148
  55   2.0000      -0.411738       -11.2040
  56   2.0000      -0.409068       -11.1313
  57   2.0000      -0.408110       -11.1052
  58   2.0000      -0.399978       -10.8840
  59   2.0000      -0.391551       -10.6546
  60   2.0000      -0.382974       -10.4213
  61   2.0000      -0.379287       -10.3209
  62   2.0000      -0.367053        -9.9880
  63   2.0000      -0.345175        -9.3927
  64   2.0000      -0.337187        -9.1753
  65   2.0000      -0.308887        -8.4053
  66   2.0000      -0.303980        -8.2717
  67   2.0000      -0.274861        -7.4794
  68   2.0000      -0.265024        -7.2117
  69   2.0000      -0.247869        -6.7448
  70   0.0000      -0.104603        -2.8464
  71   0.0000      -0.078107        -2.1254
  72   0.0000      -0.042357        -1.1526
  73   0.0000      -0.011968        -0.3257
  74   0.0000       0.021131         0.5750

MULLIKEN ATOMIC CHARGES
-----------------------
   0 C :   -0.127860
   1 C :   -0.084031
   2 C :   -0.177724
   3 C :    0.172473
   4 C :    0.272118
   5 O :   -0.540483
   6 C :    0.236542
   7 C :   -0.215590
   8 C :   -0.251088
   9 C :   -0.016143
  10 C :    0.397837
  11 N :   -0.202330
  12 C :    0.127550
  13 C :   -0.031472
  14 C :   -0.162168
  15 C :    0.685496
  16 O :   -0.597475
  17 N :   -0.209063
  18 C :   -0.250947
  19 C :   -0.271653
  20 H :    0.158959
  21 H :    0.152048
  22 H :    0.146336
  23 H :    0.149848
  24 H :    0.142414
  25 H :    0.144784
  26 H :    0.121764
  27 H :    0.126375
  28 H :    0.124711
  29 H :    0.122015
  30 H :    0.119773
  31 H :    0.184358
  32 H :    0.151266
  33 H :    0.149226
  34 H :    0.252135
Sum of atomic charges:    1.0000000

LOEWDIN ATOMIC CHARGES
----------------------
   0 C :   -0.078852
   1 C :   -0.096207
   2 C :   -0.079102
   3 C :   -0.116743
   4 C :   -0.024951
   5 O :    0.154962
   6 C :   -0.066238
   7 C :   -0.061120
   8 C :   -0.073111
   9 C :   -0.013565
  10 C :   -0.069667
  11 N :    0.223995
  12 C :   -0.035958
  13 C :   -0.091568
  14 C :   -0.004039
  15 C :   -0.341940
  16 O :   -0.069532
  17 N :    0.087706
  18 C :   -0.207897
  19 C :   -0.214284
  20 H :    0.120132
  21 H :    0.119229
  22 H :    0.115546
  23 H :    0.120567
  24 H :    0.117346
  25 H :    0.116199
  26 H :    0.151047
  27 H :    0.154708
  28 H :    0.149311
  29 H :    0.154656
  30 H :    0.154777
  31 H :    0.162707
  32 H :    0.159858
  33 H :    0.163277
  34 H :    0.218749

  Mayer bond orders larger than 0.100000
B(  0-C ,  1-C ) :   1.2646 B(  0-C ,  3-C ) :   1.4621 B(  0-C , 27-H ) :   0.9881
B(  1-C ,  2-C ) :   1.4006 B(  1-C , 28-H ) :   0.9892 B(  2-C ,  6-C ) :   1.2782
B(  2-C , 26-H ) :   0.9950 B(  3-C ,  4-C ) :   1.2303 B(  3-C ,  5-O ) :   0.8197
B(  4-C ,  6-C ) :   1.3203 B(  4-C ,  9-C ) :   0.9816 B(  5-O , 15-C ) :   0.9458
B(  6-C ,  7-C ) :   1.1288 B(  7-C ,  8-C ) :   1.4998 B(  7-C , 29-H ) :   1.0043
B(  8-C , 10-C ) :   1.1233 B(  8-C , 30-H ) :   1.0167 B(  9-C , 10-C ) :   1.3183
B(  9-C , 11-N ) :   1.2843 B( 10-C , 14-C ) :   1.2918 B( 11-N , 12-C ) :   1.3384
B( 11-N , 34-H ) :   0.8514 B( 12-C , 13-C ) :   1.3872 B( 12-C , 31-H ) :   0.9371
B( 13-C , 14-C ) :   1.4275 B( 13-C , 32-H ) :   0.9593 B( 14-C , 33-H ) :   0.9579
B( 15-C , 16-O ) :   1.8358 B( 15-C , 17-N ) :   1.3664 B( 17-N , 18-C ) :   0.9298
B( 17-N , 19-C ) :   0.9336 B( 18-C , 23-H ) :   0.9622 B( 18-C , 24-H ) :   0.9583
B( 18-C , 25-H ) :   0.9619 B( 19-C , 20-H ) :   0.9588 B( 19-C , 21-H ) :   0.9553
B( 19-C , 22-H ) :   0.9634

FINAL SINGLE POINT ENERGY      -878.896346053839

DIPOLE MOMENT
-------------
                                X             Y             Z
Electronic contribution:      8.70821      -4.50792      -5.71164
Nuclear contribution   :     -6.11744       6.02339       7.69970
                        -----------------------------------------
Total Dipole Moment    :      2.59076       1.51547       1.98806
                        -----------------------------------------
Magnitude (a.u.)       :      3.60015
Magnitude (Debye)      :      9.15085

VIBRATIONAL FREQUENCIES
-----------------------

Scaling factor for frequencies =  1.000000000  (already applied!)

   0:         0.00 cm**-1
   1:         0.00 cm**-1
   2:         0.00 cm**-1
   3:         0.00 cm**-1
   4:         0.00 cm**-1
   5:         0.00 cm**-1
   6:        29.25 cm**-1
   7:        33.82 cm**-1
   8:        54.18 cm**-1
   9:        63.33 cm**-1
  10:        89.79 cm**-1
  11:       108.02 cm**-1
  12:       111.42 cm**-1
  13:       130.15 cm**-1
  14:       199.75 cm**-1
  15:       220.97 cm**-1
  16:       232.66 cm**-1
  17:       236.23 cm**-1
  18:       247.91 cm**-1
  19:       291.90 cm**-1
  20:       350.45 cm**-1
  21:       387.64 cm**-1
  22:       407.00 cm**-1
  23:       412.44 cm**-1
  24:       469.12 cm**-1
  25:       484.94 cm**-1
  26:       506.63 cm**-1
  27:       514.77 cm**-1
  28:       520.45 cm**-1
  29:       563.31 cm**-1
  30:       574.04 cm**-1
  31:       610.27 cm**-1
  32:       623.42 cm**-1
  33:       653.74 cm**-1
  34:       705.35 cm**-1
  35:       728.78 cm**-1
  36:       732.01 cm**-1
  37:       745.14 cm**-1
  38:       777.12 cm**-1
  39:       793.55 cm**-1
  40:       820.01 cm**-1
  41:       824.93 cm**-1
  42:       848.37 cm**-1
  43:       875.52 cm**-1
  44:       879.02 cm**-1
  45:       893.95 cm**-1
  46:       927.16 cm**-1
  47:       969.64 cm**-1
  48:       989.67 cm**-1
  49:       993.02 cm**-1
  50:       999.44 cm**-1
  51:      1023.46 cm**-1
  52:      1031.36 cm**-1
  53:      1043.70 cm**-1
  54:      1075.44 cm**-1
  55:      1090.33 cm**-1
  56:      1112.72 cm**-1
  57:      1125.15 cm**-1
  58:      1131.71 cm**-1
  59:      1158.65 cm**-1
  60:      1171.96 cm**-1
  61:      1180.71 cm**-1
  62:      1193.47 cm**-1
  63:      1217.51 cm**-1
  64:      1240.92 cm**-1
  65:      1250.78 cm**-1
  66:      1265.65 cm**-1
  67:      1271.38 cm**-1
  68:      1322.47 cm**-1
  69:      1350.93 cm**-1
  70:      1364.21 cm**-1
  71:      1379.83 cm**-1
  72:      1416.23 cm**-1
  73:      1440.81 cm**-1
  74:      1442.12 cm**-1
  75:      1456.72 cm**-1
  76:      1463.21 cm**-1
  77:      1477.05 cm**-1
  78:      1478.91 cm**-1
  79:      1485.80 cm**-1
  80:      1491.00 cm**-1
  81:      1509.45 cm**-1
  82:      1522.75 cm**-1
  83:      1542.83 cm**-1
  84:      1602.53 cm**-1
  85:      1620.20 cm**-1
  86:      1638.35 cm**-1
  87:      1653.66 cm**-1
  88:      1669.30 cm**-1
  89:      1745.25 cm**-1
  90:      3036.77 cm**-1
  91:      3040.88 cm**-1
  92:      3090.26 cm**-1
  93:      3094.15 cm**-1
  94:      3172.66 cm**-1
  95:      3182.37 cm**-1
  96:      3189.49 cm**-1
  97:      3191.91 cm**-1
  98:      3199.51 cm**-1
  99:      3202.98 cm**-1
 100:      3205.68 cm**-1
 101:      3213.79 cm**-1
 102:      3229.35 cm**-1
 103:      3239.55 cm**-1
 104:      3480.27 cm**-1

IR SPECTRUM
-----------

 Mode   freq       eps      Int      T**2         TX        TY        TZ
       cm**-1   L/(mol*cm) km/mol    a.u.
----------------------------------------------------------------------------
  6:     29.25   0.000534    2.70  0.005698  (-0.056218 -0.049634  0.008570)
  7:     33.82   0.000373    1.89  0.003446  (-0.027937 -0.051599 -0.001625)
  8:     54.18   0.000096    0.48  0.000552  (-0.011989  0.005202 -0.019518)
  9:     63.33   0.000109    0.55  0.000535  ( 0.002250  0.013440 -0.018682)
 10:     89.79   0.000421    2.13  0.001462  ( 0.029467  0.005227  0.023796)
 11:    108.02   0.000545    2.76  0.001575  ( 0.002025 -0.026379  0.029581)
 12:    111.42   0.001106    5.59  0.003096  (-0.018645  0.043862 -0.028716)
 13:    130.15   0.000981    4.96  0.002353  (-0.033929 -0.032004  0.013314)
 14:    199.75   0.000498    2.52  0.000779  ( 0.023721  0.000373 -0.014688)
 15:    220.97   0.001513    7.65  0.002137  (-0.042471  0.012131  0.013630)
 16:    232.66   0.002176   11.00  0.002918  (-0.000090  0.043266 -0.032348)
 17:    236.23   0.002528   12.78  0.003339  ( 0.045620  0.028635  0.020935)
 18:    247.91   0.001905    9.63  0.002398  ( 0.048573 -0.005544  0.002730)
 19:    291.90   0.001016    5.13  0.001086  (-0.022782  0.008301 -0.022314)
 20:    350.45   0.001642    8.30  0.001462  (-0.032693  0.019257  0.004721)
 21:    387.64   0.003595   18.17  0.002894  (-0.038503  0.030461  0.021989)
 22:    407.00   0.001604    8.11  0.001230  ( 0.014075 -0.013183  0.029293)
 23:    412.44   0.001040    5.25  0.000787  ( 0.012780  0.020939  0.013601)
 24:    469.12   0.003106   15.69  0.002066  ( 0.035757 -0.025532  0.011637)
 25:    484.94   0.000251    1.27  0.000162  (-0.005628  0.009023 -0.006964)
 26:    506.63   0.000872    4.40  0.000537  (-0.019994 -0.005703  0.010225)
 27:    514.77   0.000913    4.62  0.000554  ( 0.019945  0.011238  0.005450)
 28:    520.45   0.001633    8.25  0.000979  ( 0.002885 -0.020357  0.023585)
 29:    563.31   0.000200    1.01  0.000111  ( 0.004632  0.009309 -0.001624)
 30:    574.04   0.000914    4.62  0.000497  (-0.012413  0.001125 -0.018486)
 31:    610.27   0.001594    8.06  0.000815  (-0.004990 -0.009575 -0.026430)
 32:    623.42   0.000332    1.68  0.000166  ( 0.004622  0.009232 -0.007731)
 33:    653.74   0.001536    7.76  0.000733  ( 0.010945 -0.012528 -0.021365)
 34:    705.35   0.002511   12.69  0.001111  ( 0.017724 -0.005800 -0.027623)
 35:    728.78   0.013745   69.46  0.005886  (-0.039606  0.048145 -0.044712)
 36:    732.01   0.006783   34.28  0.002892  (-0.024496  0.020841 -0.043095)
 37:    745.14   0.005884   29.73  0.002464  (-0.038166 -0.030698  0.008070)
 38:    777.12   0.013840   69.94  0.005558  (-0.020268 -0.026395  0.066709)
 39:    793.55   0.003023   15.28  0.001189  ( 0.025280 -0.020221  0.011860)
 40:    820.01   0.013402   67.73  0.005100  (-0.062877  0.026103  0.021573)
 41:    824.93   0.005158   26.07  0.001951  ( 0.039598 -0.011818 -0.015612)
 42:    848.37   0.018216   92.06  0.006701  (-0.013953  0.040022 -0.070031)
 43:    875.52   0.011816   59.71  0.004211  (-0.037609  0.037418 -0.037375)
 44:    879.02   0.001845    9.33  0.000655  ( 0.007969 -0.017709  0.016674)
 45:    893.95   0.000768    3.88  0.000268  ( 0.007981 -0.007844  0.011945)
 46:    927.16   0.000154    0.78  0.000052  ( 0.002111 -0.000826  0.006845)
 47:    969.64   0.018095   91.44  0.005823  ( 0.068932 -0.029999  0.013108)
 48:    989.67   0.000723    3.66  0.000228  (-0.002877  0.006954 -0.013095)
 49:    993.02   0.001989   10.05  0.000625  ( 0.005832 -0.012839  0.020647)
 50:    999.44   0.000031    0.16  0.000010  (-0.000552 -0.001461  0.002674)
 51:   1023.46   0.000029    0.14  0.000009  (-0.000295  0.001046 -0.002745)
 52:   1031.36   0.036377  183.83  0.011007  (-0.085523  0.054830  0.026195)
 53:   1043.70   0.023959  121.08  0.007164  (-0.060704  0.054688  0.022089)
 54:   1075.44   0.005050   25.52  0.001465  (-0.031274  0.017928 -0.012880)
 55:   1090.33   0.007829   39.56  0.002241  (-0.044992  0.010764  0.010025)
 56:   1112.72   0.016277   82.26  0.004565  ( 0.060901 -0.018116 -0.022974)
 57:   1125.15   0.032667  165.09  0.009060  ( 0.061108 -0.057268 -0.045239)
 58:   1131.71   0.127131  642.47  0.035056  ( 0.129455 -0.111880 -0.076027)
 59:   1158.65   0.001867    9.44  0.000503  (-0.018742 -0.001750  0.012190)
 60:   1171.96   0.002213   11.18  0.000589  (-0.018357  0.015794  0.001712)
 61:   1180.71   0.002466   12.46  0.000652  ( 0.015536  0.018382  0.008509)
 62:   1193.47   0.002520   12.74  0.000659  ( 0.021133 -0.014575 -0.000004)
 63:   1217.51   0.002522   12.74  0.000646  (-0.018027  0.017582  0.003492)
 64:   1240.92   0.006581   33.26  0.001655  (-0.020650  0.031830  0.014673)
 65:   1250.78   0.034320  173.44  0.008563  (-0.068621  0.057060  0.024454)
 66:   1265.65   0.004265   21.55  0.001052  (-0.013444 -0.021793 -0.019898)
 67:   1271.38   0.001887    9.53  0.000463  ( 0.009625 -0.004652 -0.018675)
 68:   1322.47   0.005974   30.19  0.001410  ( 0.016841  0.026991  0.019941)
 69:   1350.93   0.010873   54.95  0.002512  ( 0.049478  0.003351 -0.007232)
 70:   1364.21   0.003968   20.05  0.000908  ( 0.019084 -0.015805 -0.017138)
 71:   1379.83   0.030622  154.75  0.006926  (-0.003997  0.074886  0.036077)
 72:   1416.23   0.032982  166.68  0.007268  (-0.070777  0.038380  0.028021)
 73:   1440.81   0.002499   12.63  0.000541  (-0.003362 -0.013992  0.018282)
 74:   1442.12   0.007252   36.65  0.001569  (-0.011303 -0.030830 -0.022158)
 75:   1456.72   0.001838    9.29  0.000394  ( 0.002214 -0.019712 -0.000460)
 76:   1463.21   0.009880   49.93  0.002107  (-0.037020  0.008016 -0.025929)
 77:   1477.05   0.010739   54.27  0.002269  (-0.033527  0.015930  0.029851)
 78:   1478.91   0.000594    3.00  0.000125  (-0.008617  0.000685  0.007120)
 79:   1485.80   0.006716   33.94  0.001411  (-0.021303 -0.029232  0.010114)
 80:   1491.00   0.002758   13.94  0.000577  ( 0.020439 -0.001911  0.012487)
 81:   1509.45   0.011453   57.88  0.002368  (-0.028544 -0.036290 -0.015364)
 82:   1522.75   0.018206   92.00  0.003731  ( 0.053622 -0.029156  0.002366)
 83:   1542.83   0.007754   39.18  0.001568  (-0.018658 -0.029976 -0.017934)
 84:   1602.53   0.007862   39.73  0.001531  ( 0.016356  0.029884  0.019244)
 85:   1620.20   0.013571   68.58  0.002614  ( 0.022563 -0.035875 -0.028596)
 86:   1638.35   0.026445  133.64  0.005037  ( 0.029184  0.059745  0.024820)
 87:   1653.66   0.005423   27.40  0.001023  ( 0.004797 -0.015676 -0.027469)
 88:   1669.30   0.022943  115.94  0.004289  ( 0.054744  0.035519  0.005520)
 89:   1745.25   0.197213  996.63  0.035263  ( 0.005826  0.043553  0.182571)
 90:   3036.77   0.005797   29.30  0.000596  (-0.019102  0.003320 -0.014827)
 91:   3040.88   0.015504   78.35  0.001591  ( 0.015759 -0.022845 -0.028650)
 92:   3090.26   0.010652   53.83  0.001076  ( 0.023376  0.022069 -0.006501)
 93:   3094.15   0.000372    1.88  0.000038  (-0.003666  0.002268  0.004351)
 94:   3172.66   0.000634    3.20  0.000062  (-0.002603  0.002591 -0.006990)
 95:   3182.37   0.001100    5.56  0.000108  ( 0.006278 -0.008230  0.000835)
 96:   3189.49   0.000083    0.42  0.000008  (-0.002602  0.000494  0.001065)
 97:   3191.91   0.000317    1.60  0.000031  (-0.005252 -0.001373  0.001215)
 98:   3199.51   0.000024    0.12  0.000002  ( 0.001099  0.001018  0.000359)
 99:   3202.98   0.001899    9.60  0.000185  (-0.003099 -0.011610 -0.006373)
100:   3205.68   0.000970    4.90  0.000094  (-0.004134  0.006648  0.005760)
101:   3213.79   0.000139    0.70  0.000013  ( 0.003496  0.000802 -0.000786)
102:   3229.35   0.000640    3.23  0.000062  (-0.004639  0.004332  0.004641)
103:   3239.55   0.001888    9.54  0.000182  (-0.001812 -0.011373 -0.007018)
104:   3480.27   0.104509  528.14  0.009371  ( 0.092232 -0.000226 -0.029395)

--------------------------
THERMOCHEMISTRY AT 298.15K
--------------------------

Temperature         ... 298.15 K
Pressure            ... 1.00 atm
Total Mass          ... 267.31 AMU

Throughout the following assumptions are being made:
  (1) The electronic state is orbitally nondegenerate
  (2) There are no thermally accessible electronically excited states
  (3) Hindered rotations indicated by low frequency modes are not
      treated as such but are treated as vibrations and this may
      cause some error
  (4) All equations used are the standard statistical mechanics
      equations for an ideal gas
  (5) All vibrations are strictly harmonic

freq.      29.25  E(vib)   ...       0.55
freq.      33.82  E(vib)   ...       0.55
freq.      54.18  E(vib)   ...       0.52
freq.      63.33  E(vib)   ...       0.51
freq.      89.79  E(vib)   ...       0.47
freq.     108.02  E(vib)   ...       0.45
freq.     111.42  E(vib)   ...       0.45
freq.     130.15  E(vib)   ...       0.43
freq.     199.75  E(vib)   ...       0.35
freq.     220.97  E(vib)   ...       0.33
freq.     232.66  E(vib)   ...       0.32
freq.     236.23  E(vib)   ...       0.32
freq.     247.91  E(vib)   ...       0.31
freq.     291.90  E(vib)   ...       0.27
freq.     350.45  E(vib)   ...       0.23
freq.     387.64  E(vib)   ...       0.20
freq.     407.00  E(vib)   ...       0.19
freq.     412.44  E(vib)   ...       0.19
freq.     469.12  E(vib)   ...       0.16
freq.     484.94  E(vib)   ...       0.15
freq.     506.63  E(vib)   ...       0.14
freq.     514.77  E(vib)   ...       0.13
freq.     520.45  E(vib)   ...       0.13
freq.     563.31  E(vib)   ...       0.11
freq.     574.04  E(vib)   ...       0.11
freq.     610.27  E(vib)   ...       0.10
freq.     623.42  E(vib)   ...       0.09
freq.     653.74  E(vib)   ...       0.08
freq.     705.35  E(vib)   ...       0.07
freq.     728.78  E(vib)   ...       0.06
freq.     732.01  E(vib)   ...       0.06
freq.     745.14  E(vib)   ...       0.06
freq.     777.12  E(vib)   ...       0.05
freq.     793.55  E(vib)   ...       0.05
freq.     820.01  E(vib)   ...       0.05
freq.     824.93  E(vib)   ...       0.04
freq.     848.37  E(vib)   ...       0.04
freq.     875.52  E(vib)   ...       0.04
freq.     879.02  E(vib)   ...       0.04
freq.     893.95  E(vib)   ...       0.03
freq.     927.16  E(vib)   ...       0.03
freq.     969.64  E(vib)   ...       0.03
freq.     989.67  E(vib)   ...       0.02
freq.     993.02  E(vib)   ...       0.02
freq.     999.44  E(vib)   ...       0.02
freq.    1023.46  E(vib)   ...       0.02
freq.    1031.36  E(vib)   ...       0.02
freq.    1043.70  E(vib)   ...       0.02
freq.    1075.44  E(vib)   ...       0.02
freq.    1090.33  E(vib)   ...       0.02
freq.    1112.72  E(vib)   ...       0.01
freq.    1125.15  E(vib)   ...       0.01
freq.    1131.71  E(vib)   ...       0.01
freq.    1158.65  E(vib)   ...       0.01
freq.    1171.96  E(vib)   ...       0.01
freq.    1180.71  E(vib)   ...       0.01
freq.    1193.47  E(vib)   ...       0.01
freq.    1217.51  E(vib)   ...       0.01
freq.    1240.92  E(vib)   ...       0.01
freq.    1250.78  E(vib)   ...       0.01
freq.    1265.65  E(vib)   ...       0.01
freq.    1271.38  E(vib)   ...       0.01
freq.    1322.47  E(vib)   ...       0.01
freq.    1350.93  E(vib)   ...       0.01
freq.    1364.21  E(vib)   ...       0.01
freq.    1379.83  E(vib)   ...       0.01
freq.    1416.23  E(vib)   ...       0.00
freq.    1440.81  E(vib)   ...       0.00
freq.    1442.12  E(vib)   ...       0.00
freq.    1456.72  E(vib)   ...       0.00
freq.    1463.21  E(vib)   ...       0.00
freq.    1477.05  E(vib)   ...       0.00
freq.    1478.91  E(vib)   ...       0.00
freq.    1485.80  E(vib)   ...       0.00
freq.    1491.00  E(vib)   ...       0.00
freq.    1509.45  E(vib)   ...       0.00
freq.    1522.75  E(vib)   ...       0.00
freq.    1542.83  E(vib)   ...       0.00
freq.    1602.53  E(vib)   ...       0.00
freq.    1620.20  E(vib)   ...       0.00
freq.    1638.35  E(vib)   ...       0.00
freq.    1653.66  E(vib)   ...       0.00
freq.    1669.30  E(vib)   ...       0.00
freq.    1745.25  E(vib)   ...       0.00
freq.    3036.77  E(vib)   ...       0.00
freq.    3040.88  E(vib)   ...       0.00
freq.    3090.26  E(vib)   ...       0.00
freq.    3094.15  E(vib)   ...       0.00
freq.    3172.66  E(vib)   ...       0.00
freq.    3182.37  E(vib)   ...       0.00
freq.    3189.49  E(vib)   ...       0.00
freq.    3191.91  E(vib)   ...       0.00
freq.    3199.51  E(vib)   ...       0.00
freq.    3202.98  E(vib)   ...       0.00
freq.    3205.68  E(vib)   ...       0.00
freq.    3213.79  E(vib)   ...       0.00
freq.    3229.35  E(vib)   ...       0.00
freq.    3239.55  E(vib)   ...       0.00
freq.    3480.27  E(vib)   ...       0.00

------------
INNER ENERGY
------------

The inner energy is: U= E(el) + E(ZPE) + E(vib) + E(rot) + E(trans)
    E(el)   - is the total energy from the electronic structure calculation
              = E(kin-el) + E(nuc-el) + E(el-el) + E(nuc-nuc)
    E(ZPE)  - the the zero temperature vibrational energy from the frequency calculation
    E(vib)  - the the finite temperature correction to E(ZPE) due to population
              of excited vibrational states
    E(rot)  - is the rotational thermal energy
    E(trans)- is the translational thermal energy

Summary of contributions to the inner energy U:
Electronic energy                ...   -878.89634605 Eh
Zero point energy                ...      0.28262581 Eh     177.35 kcal/mol
Thermal vibrational correction   ...      0.01411216 Eh       8.86 kcal/mol
Thermal rotational correction    ...      0.00141627 Eh       0.89 kcal/mol
Thermal translational correction ...      0.00141627 Eh       0.89 kcal/mol
-----------------------------------------------------------------------
Total thermal energy                   -878.59677555 Eh

Summary of corrections to the electronic energy:
(perhaps to be used in another calculation)
Total thermal correction                  0.01694470 Eh      10.63 kcal/mol
Non-thermal (ZPE) correction              0.28262581 Eh     177.35 kcal/mol
-----------------------------------------------------------------------
Total correction                          0.29957051 Eh     187.98 kcal/mol

--------
ENTHALPY
--------

The enthalpy is H = U + kB*T
                kB is Boltzmann's constant
Total free energy                 ...   -878.59677555 Eh
Thermal Enthalpy correction       ...      0.00094421 Eh       0.59 kcal/mol
-----------------------------------------------------------------------
Total Enthalpy                    ...   -878.59583134 Eh

Note: Only C1 symmetry has been detected, increase convergence thresholds

Rotational constants in cm-1:     0.016846     0.009580     0.006527

                             ****ORCA TERMINATED NORMALLY****
TOTAL RUN TIME: 0 days 1 hours 42 minutes 11 seconds 802 msec
