                         Program Version 5.0.4 -  RELEASE  -
|  1> ! B3LYP/G OPT Def2-TZVP(-f) Def2-TZVP/C Def2/J RIJCOSX TightSCF CPCM(Water) AllPop SOSCF
|  2> %maxcore 3000
|  3> %tddft
|  4>     NRoots 5
|  5>     IRoot 1
|  6> end
|  7>
|  8> * xyz 0 1
|  9>    C       -3.69720       -0.60578        0.13683
| 10>    C       -3.67674       -1.97528        0.09112
| 11>    C       -2.45486       -2.66049        0.04319
| 12>    C       -1.23739       -1.98859        0.03914
| 13>    C       -1.19162       -0.55526        0.08420
| 14>    C       -2.48970        0.17900        0.13719
| 15>    O       -2.53253        1.40218        0.18070
| 16>    C        0.02749        0.08265        0.07706
| 17>    C        1.25971       -0.66230        0.02668
| 18>    C        1.17702       -2.08862       -0.01657
| 19>    C       -0.01664       -2.71554       -0.01059
| 20>    N        0.14882        1.45773        0.11687
| 21>    C        1.33128        2.09795        0.11156
| 22>    C        2.50436        1.41744        0.06554
| 23>    C        2.46659        0.00968        0.02187
| 24>    H       -0.70002        1.97700        0.15198
| 25>    H       -4.62154       -0.06036        0.17499
| 26>    H       -4.59418       -2.53225        0.09234
| 27>    H       -2.45166       -3.73348        0.00832
| 28>    H       -0.06195       -3.78839       -0.04396
| 29>    H        2.09170       -2.64927       -0.05425
| 30>    H        3.37908       -0.55382       -0.01548
| 31>    H        1.28063        3.16808        0.14606
| 32>    H        3.43201        1.95305        0.06249
| 33> *
| 34>
| 35>
| 36>
| 37>                          ****END OF INPUT****
 Total Charge           Charge          ....    0
 Multiplicity           Mult            ....    1
 Number of Electrons    NEL             ....  102
FINAL SINGLE POINT ENERGY      -630.929049063093
FINAL SINGLE POINT ENERGY      -630.937700327727
FINAL SINGLE POINT ENERGY      -630.940434506781
FINAL SINGLE POINT ENERGY      -630.940688206490
FINAL SINGLE POINT ENERGY      -630.940736188738
FINAL SINGLE POINT ENERGY      -630.940742127722
FINAL SINGLE POINT ENERGY      -630.940744688518
                    ***********************HURRAY********************

CARTESIAN COORDINATES (ANGSTROEM)
---------------------------------
  C     -3.691748   -0.589089    0.135405
  C     -3.687600   -1.978752    0.089373
  C     -2.498613   -2.675462    0.044033
  C     -1.237055   -1.991450    0.040129
  C     -1.209398   -0.580718    0.085316
  C     -2.480190    0.165566    0.137712
  O     -2.514591    1.434391    0.184793
  C      0.070371    0.065818    0.077028
  C      1.264422   -0.672736    0.026670
  C      1.185931   -2.082486   -0.015850
  C     -0.023649   -2.729314   -0.009698
  N      0.145174    1.434940    0.117369
  C      1.323477    2.118278    0.112376
  C      2.520994    1.419994    0.063792
  C      2.520079    0.039631    0.020416
  H     -0.757809    1.912382    0.154520
  H     -4.618366   -0.031110    0.172910
  H     -4.626280   -2.518980    0.089859
  H     -2.495698   -3.757259    0.009475
  H     -0.071433   -3.809863   -0.042988
  H      2.107909   -2.650081   -0.053990
  H      3.444424   -0.519833   -0.018530
  H      1.254355    3.194198    0.146891
  H      3.447956    1.977264    0.060267

 Multiplicity           Mult            ....    1
 Number of Electrons    NEL             ....  102
 Basis Dimension        Dim             ....  414

ORBITAL ENERGIES
----------------

  NO   OCC          E(Eh)            E(eV)
   0   2.0000     -19.073674      -519.0211
   1   2.0000     -14.400832      -391.8666
   2   2.0000     -10.251566      -278.9593
   3   2.0000     -10.251349      -278.9534
   4   2.0000     -10.229139      -278.3490
   5   2.0000     -10.217892      -278.0430
   6   2.0000     -10.213569      -277.9253
   7   2.0000     -10.201799      -277.6051
   8   2.0000     -10.192602      -277.3548
   9   2.0000     -10.189191      -277.2620
  10   2.0000     -10.187217      -277.2083
  11   2.0000     -10.186082      -277.1774
  12   2.0000     -10.173605      -276.8379
  13   2.0000     -10.161648      -276.5125
  14   2.0000     -10.155736      -276.3516
  15   2.0000      -1.013455       -27.5775
  16   2.0000      -0.989789       -26.9335
  17   2.0000      -0.879555       -23.9339
  18   2.0000      -0.842066       -22.9138
  19   2.0000      -0.818669       -22.2771
  20   2.0000      -0.780499       -21.2384
  21   2.0000      -0.751898       -20.4602
  22   2.0000      -0.712498       -19.3881
  23   2.0000      -0.677063       -18.4238
  24   2.0000      -0.661522       -18.0009
  25   2.0000      -0.640320       -17.4240
  26   2.0000      -0.599063       -16.3013
  27   2.0000      -0.568350       -15.4656
  28   2.0000      -0.546618       -14.8742
  29   2.0000      -0.527939       -14.3659
  30   2.0000      -0.515112       -14.0169
  31   2.0000      -0.490522       -13.3478
  32   2.0000      -0.483693       -13.1620
  33   2.0000      -0.466494       -12.6940
  34   2.0000      -0.456828       -12.4309
  35   2.0000      -0.446792       -12.1578
  36   2.0000      -0.435391       -11.8476
  37   2.0000      -0.421480       -11.4691
  38   2.0000      -0.404451       -11.0057
  39   2.0000      -0.397198       -10.8083
  40   2.0000      -0.394486       -10.7345
  41   2.0000      -0.385198       -10.4818
  42   2.0000      -0.365336        -9.9413
  43   2.0000      -0.356500        -9.7009
  44   2.0000      -0.353049        -9.6069
  45   2.0000      -0.329111        -8.9556
  46   2.0000      -0.317673        -8.6443
  47   2.0000      -0.272122        -7.4048
  48   2.0000      -0.251823        -6.8525
  49   2.0000      -0.244005        -6.6397
  50   2.0000      -0.189338        -5.1521
  51   0.0000      -0.091421        -2.4877
  52   0.0000      -0.050682        -1.3791
  53   0.0000      -0.020847        -0.5673
  54   0.0000       0.021331         0.5804
  55   0.0000       0.051526         1.4021

MULLIKEN ATOMIC CHARGES
-----------------------
   0 C :   -0.240922
   1 C :   -0.062073
   2 C :   -0.290615
   3 C :    0.289654
   4 C :    0.018387
   5 C :    0.317234
   6 O :   -0.735487
   7 C :    0.046505
   8 C :    0.323010
   9 C :   -0.248911
  10 C :   -0.236865
  11 N :   -0.204512
  12 C :    0.093599
  13 C :   -0.044171
  14 C :   -0.186802
  15 H :    0.215323
  16 H :    0.068993
  17 H :    0.101304
  18 H :    0.101028
  19 H :    0.111689
  20 H :    0.109208
  21 H :    0.142620
  22 H :    0.172998
  23 H :    0.138808
Sum of atomic charges:    0.0000000

LOEWDIN ATOMIC CHARGES
----------------------
   0 C :   -0.154375
   1 C :   -0.147183
   2 C :   -0.149875
   3 C :   -0.098653
   4 C :   -0.055555
   5 C :   -0.249483
   6 O :   -0.212878
   7 C :   -0.036364
   8 C :   -0.084095
   9 C :   -0.095380
  10 C :   -0.073488
  11 N :    0.201260
  12 C :   -0.056393
  13 C :   -0.125650
  14 C :   -0.020745
  15 H :    0.198192
  16 H :    0.129116
  17 H :    0.138241
  18 H :    0.134763
  19 H :    0.147461
  20 H :    0.148204
  21 H :    0.154504
  22 H :    0.154218
  23 H :    0.154157

  Mayer bond orders larger than 0.100000
B(  0-C ,  1-C ) :   1.4088 B(  0-C ,  5-C ) :   1.3833 B(  0-C , 16-H ) :   1.0054
B(  1-C ,  2-C ) :   1.3700 B(  1-C , 17-H ) :   0.9902 B(  2-C ,  3-C ) :   1.2667
B(  2-C , 18-H ) :   0.9932 B(  3-C ,  4-C ) :   1.3013 B(  3-C , 10-C ) :   1.1561
B(  4-C ,  5-C ) :   0.9874 B(  4-C ,  7-C ) :   1.1001 B(  5-C ,  6-O ) :   1.5158
B(  6-O , 15-H ) :   0.1576 B(  7-C ,  8-C ) :   1.3246 B(  7-C , 11-N ) :   1.2684
B(  8-C ,  9-C ) :   1.1496 B(  8-C , 14-C ) :   1.2920 B(  9-C , 10-C ) :   1.4870
B(  9-C , 20-H ) :   1.0193 B( 10-C , 19-H ) :   1.0109 B( 11-N , 12-C ) :   1.3120
B( 11-N , 15-H ) :   0.8165 B( 12-C , 13-C ) :   1.4066 B( 12-C , 22-H ) :   0.9443
B( 13-C , 14-C ) :   1.4219 B( 13-C , 23-H ) :   0.9632 B( 14-C , 21-H ) :   0.9589

-----------------------------------------------------------------------------
         ABSORPTION SPECTRUM VIA TRANSITION ELECTRIC DIPOLE MOMENTS
-----------------------------------------------------------------------------
State   Energy    Wavelength  fosc         T2        TX        TY        TZ
        (cm-1)      (nm)                 (au**2)    (au)      (au)      (au)
-----------------------------------------------------------------------------
   1   18503.9    540.4   0.386063475   6.86865  -2.41102  -1.02725   0.02037
   2   25263.0    395.8   0.083216479   1.08442   0.85379  -0.59493  -0.03902
   3   26865.3    372.2   0.000003718   0.00005  -0.00668  -0.00096  -0.00011
   4   30015.4    333.2   0.053649854   0.58844  -0.54581   0.53821   0.02930
   5   32529.0    307.4   0.181164646   1.83349   1.33799   0.20698  -0.02058

FINAL SINGLE POINT ENERGY      -630.940744212396

DIPOLE MOMENT
-------------
                                X             Y             Z
Electronic contribution:     -1.40977       1.64310       0.09210
Nuclear contribution   :      2.64378      -2.44371      -0.15245
                        -----------------------------------------
Total Dipole Moment    :      1.23401      -0.80061      -0.06035
                        -----------------------------------------
Magnitude (a.u.)       :      1.47220
Magnitude (Debye)      :      3.74204

Rotational constants in cm-1:     0.040122     0.018214     0.012527
Rotational constants in MHz :  1202.821745   546.037167   375.551681

                             ****ORCA TERMINATED NORMALLY****
TOTAL RUN TIME: 0 days 2 hours 27 minutes 32 seconds 373 msec
