                         Program Version 5.0.4 -  RELEASE  -
|  1> ! B3LYP/G OPT Def2-TZVP(-f) Def2-TZVP/C Def2/J RIJCOSX TightSCF CPCM(Water) AllPop SOSCF
|  2>
|  3> * xyz 0 1
|  4>   C   -3.28609260665609     -0.40615614381661     -0.65958858217974
|  5>   C   -2.82772916745153     -1.29824903288152     -1.63631245238532
|  6>   C   -1.47702484690859     -1.45473106198240     -1.84362746413947
|  7>   C   -2.37763249890616      0.32022257440595      0.09851763563519
|  8>   C   -0.97379537840659      0.19226313522499     -0.09381659175873
|  9>   O   -2.90460617416474      1.07401670585467      1.14728778490230
| 10>   C   -0.54373142333834     -0.71908607346258     -1.08280129872721
| 11>   C   0.85733820167293     -0.91586637814928     -1.33809114260337
| 12>   C   1.79819798182737     -0.23430504267528     -0.64530171892198
| 13>   C   0.04445292735068      0.92118208011204      0.64101499681007
| 14>   C   1.41007334207009      0.70591551024024      0.36365603666250
| 15>   N   -0.31463487926008      1.83248493780497      1.61190459597823
| 16>   C   0.61489524868520      2.50820487091430      2.28625037740697
| 17>   C   1.99402122408931      2.32808984524524      2.04725202947909
| 18>   C   2.38758582802999      1.42749834274886      1.08693139047546
| 19>   C   -3.33501304885836      2.34887108869604      0.86779522953755
| 20>   O   -3.28915228995160      2.81221692439881     -0.25777873092226
| 21>   N   -3.78008225006527      3.05787410233766      2.03482673965386
| 22>   C   -3.88645748885352      2.32148300265541      3.31444676399949
| 23>   C   -4.88970418891967      4.01555941830364      1.81597856654798
| 24>   H   -4.79725947196942      4.51242822855056      0.84106473824043
| 25>   H   -4.84326790411358      4.78482883277958      2.59828052956315
| 26>   H   -5.87676601171625      3.53195951166335      1.86591219388635
| 27>   H   -2.93245553049205      1.82856118895560      3.54454134306137
| 28>   H   -4.68339966138257      1.56333871807931      3.31275579415223
| 29>   H   -4.09863885426663      3.04090555352104      4.11678165893592
| 30>   H   -1.11253377794057     -2.15244199260055     -2.60664799158499
| 31>   H   -4.36427747754379     -0.28414830898986     -0.50350801114197
| 32>   H   -3.55154663483567     -1.86532708966576     -2.23088899493286
| 33>   H   1.14454130330629     -1.63553414655326     -2.11405727440990
| 34>   H   2.86688701849861     -0.38187887842761     -0.83872273022479
| 35>   H   0.24097823205495      3.21448732473804      3.03672131272725
| 36>   H   2.72600707846379      2.90292128838222      2.62259446508623
| 37>   H   3.44897317995215      1.26025096359198      0.87100880119082
| 38> *
| 39>
| 40>
| 41>                          ****END OF INPUT****
 Total Charge           Charge          ....    0
 Multiplicity           Mult            ....    1
 Number of Electrons    NEL             ....  140
FINAL SINGLE POINT ENERGY      -878.428476781176
FINAL SINGLE POINT ENERGY      -878.436529081541
FINAL SINGLE POINT ENERGY      -878.438384987071
FINAL SINGLE POINT ENERGY      -878.439076027633
FINAL SINGLE POINT ENERGY      -878.439822634085
FINAL SINGLE POINT ENERGY      -878.440072907378
FINAL SINGLE POINT ENERGY      -878.440218667597
FINAL SINGLE POINT ENERGY      -878.440263406815
FINAL SINGLE POINT ENERGY      -878.440272130993
FINAL SINGLE POINT ENERGY      -878.440280760614
FINAL SINGLE POINT ENERGY      -878.440298529467
FINAL SINGLE POINT ENERGY      -878.440320027616
FINAL SINGLE POINT ENERGY      -878.440338512079
FINAL SINGLE POINT ENERGY      -878.440357834313
FINAL SINGLE POINT ENERGY      -878.440364849064
                    ***********************HURRAY********************

CARTESIAN COORDINATES (ANGSTROEM)
---------------------------------
  C     -3.294277   -0.646447   -0.618302
  C     -2.791938   -1.502492   -1.603228
  C     -1.438447   -1.542957   -1.835969
  C     -2.449692    0.158508    0.113920
  C     -1.046077    0.153697   -0.089954
  O     -3.055253    0.891740    1.129598
  C     -0.554771   -0.733836   -1.094942
  C      0.850668   -0.818480   -1.357629
  C      1.744018   -0.074256   -0.667379
  C     -0.082420    0.964439    0.641808
  C      1.302219    0.831881    0.343907
  N     -0.508822    1.833414    1.586115
  C      0.378197    2.559397    2.243247
  C      1.760196    2.490299    2.023891
  C      2.217239    1.619474    1.065255
  C     -3.314275    2.217871    0.897511
  O     -3.119881    2.743038   -0.188227
  N     -3.818432    2.825792    1.988706
  C     -4.105568    2.137722    3.242666
  C     -4.302271    4.196104    1.885003
  H     -3.988742    4.622902    0.938462
  H     -3.892638    4.789619    2.704006
  H     -5.393823    4.223507    1.948310
  H     -3.482209    1.257266    3.347373
  H     -5.157506    1.842053    3.295950
  H     -3.896385    2.818493    4.068293
  H     -1.027661   -2.201877   -2.590594
  H     -4.355185   -0.604076   -0.409987
  H     -3.469754   -2.126652   -2.170839
  H      1.181404   -1.503424   -2.128602
  H      2.805788   -0.147260   -0.869553
  H     -0.016658    3.242159    2.989208
  H      2.435800    3.111845    2.596063
  H      3.275306    1.528379    0.850295

 Multiplicity           Mult            ....    1
 Number of Electrons    NEL             ....  140
 Basis Dimension        Dim             ....  564

ORBITAL ENERGIES
----------------

  NO   OCC          E(Eh)            E(eV)
   0   2.0000     -19.175289      -521.7861
   1   2.0000     -19.101356      -519.7743
   2   2.0000     -14.352800      -390.5595
   3   2.0000     -14.318759      -389.6332
   4   2.0000     -10.322163      -280.8803
   5   2.0000     -10.248214      -278.8681
   6   2.0000     -10.226626      -278.2806
   7   2.0000     -10.212377      -277.8929
   8   2.0000     -10.202655      -277.6284
   9   2.0000     -10.198708      -277.5210
  10   2.0000     -10.198024      -277.5024
  11   2.0000     -10.197031      -277.4753
  12   2.0000     -10.196728      -277.4671
  13   2.0000     -10.193872      -277.3894
  14   2.0000     -10.184058      -277.1223
  15   2.0000     -10.184032      -277.1216
  16   2.0000     -10.183940      -277.1191
  17   2.0000     -10.183286      -277.1013
  18   2.0000     -10.181962      -277.0653
  19   2.0000     -10.180968      -277.0382
  20   2.0000      -1.117022       -30.3957
  21   2.0000      -1.023828       -27.8598
  22   2.0000      -0.956404       -26.0251
  23   2.0000      -0.947740       -25.7893
  24   2.0000      -0.882366       -24.0104
  25   2.0000      -0.840253       -22.8644
  26   2.0000      -0.808735       -22.0068
  27   2.0000      -0.784643       -21.3512
  28   2.0000      -0.752915       -20.4879
  29   2.0000      -0.745728       -20.2923
  30   2.0000      -0.722257       -19.6536
  31   2.0000      -0.707659       -19.2564
  32   2.0000      -0.657092       -17.8804
  33   2.0000      -0.649660       -17.6782
  34   2.0000      -0.632759       -17.2182
  35   2.0000      -0.620621       -16.8880
  36   2.0000      -0.575545       -15.6614
  37   2.0000      -0.548331       -14.9208
  38   2.0000      -0.537778       -14.6337
  39   2.0000      -0.532136       -14.4801
  40   2.0000      -0.517712       -14.0877
  41   2.0000      -0.497677       -13.5425
  42   2.0000      -0.493955       -13.4412
  43   2.0000      -0.484691       -13.1891
  44   2.0000      -0.480506       -13.0752
  45   2.0000      -0.467699       -12.7267
  46   2.0000      -0.446119       -12.1395
  47   2.0000      -0.445837       -12.1318
  48   2.0000      -0.437841       -11.9142
  49   2.0000      -0.430842       -11.7238
  50   2.0000      -0.420784       -11.4501
  51   2.0000      -0.415389       -11.3033
  52   2.0000      -0.408566       -11.1177
  53   2.0000      -0.407055       -11.0765
  54   2.0000      -0.406346       -11.0572
  55   2.0000      -0.402062       -10.9407
  56   2.0000      -0.386873       -10.5273
  57   2.0000      -0.385488       -10.4897
  58   2.0000      -0.378079       -10.2880
  59   2.0000      -0.364433        -9.9167
  60   2.0000      -0.357059        -9.7161
  61   2.0000      -0.338261        -9.2046
  62   2.0000      -0.320288        -8.7155
  63   2.0000      -0.307883        -8.3779
  64   2.0000      -0.291397        -7.9293
  65   2.0000      -0.283125        -7.7042
  66   2.0000      -0.263575        -7.1722
  67   2.0000      -0.251990        -6.8570
  68   2.0000      -0.250442        -6.8149
  69   2.0000      -0.230652        -6.2764
  70   0.0000      -0.063806        -1.7363
  71   0.0000      -0.055690        -1.5154
  72   0.0000      -0.018444        -0.5019
  73   0.0000       0.008466         0.2304
  74   0.0000       0.031917         0.8685

MULLIKEN ATOMIC CHARGES
-----------------------
   0 C :   -0.157653
   1 C :   -0.113017
   2 C :   -0.186646
   3 C :    0.130610
   4 C :    0.171896
   5 O :   -0.471926
   6 C :    0.235597
   7 C :   -0.244033
   8 C :   -0.259347
   9 C :    0.148118
  10 C :    0.342786
  11 N :   -0.519143
  12 C :    0.064898
  13 C :   -0.044524
  14 C :   -0.208595
  15 C :    0.748332
  16 O :   -0.641804
  17 N :   -0.233336
  18 C :   -0.264969
  19 C :   -0.248267
  20 H :    0.144076
  21 H :    0.138112
  22 H :    0.133106
  23 H :    0.149761
  24 H :    0.135959
  25 H :    0.138595
  26 H :    0.111043
  27 H :    0.112680
  28 H :    0.112458
  29 H :    0.108110
  30 H :    0.104661
  31 H :    0.117584
  32 H :    0.121779
  33 H :    0.123100
Sum of atomic charges:   -0.0000000

LOEWDIN ATOMIC CHARGES
----------------------
   0 C :   -0.099142
   1 C :   -0.120936
   2 C :   -0.096006
   3 C :   -0.121553
   4 C :   -0.027674
   5 O :    0.177414
   6 C :   -0.080889
   7 C :   -0.089890
   8 C :   -0.093308
   9 C :   -0.089095
  10 C :   -0.089862
  11 N :    0.067026
  12 C :   -0.157585
  13 C :   -0.128539
  14 C :   -0.064396
  15 C :   -0.357786
  16 O :   -0.102184
  17 N :    0.074488
  18 C :   -0.223897
  19 C :   -0.220050
  20 H :    0.117999
  21 H :    0.113684
  22 H :    0.111850
  23 H :    0.116612
  24 H :    0.110907
  25 H :    0.115705
  26 H :    0.145646
  27 H :    0.147259
  28 H :    0.143568
  29 H :    0.147262
  30 H :    0.146663
  31 H :    0.133251
  32 H :    0.144201
  33 H :    0.149258

  Mayer bond orders larger than 0.100000
B(  0-C ,  1-C ) :   1.2610 B(  0-C ,  3-C ) :   1.4933 B(  0-C , 27-H ) :   1.0019
B(  1-C ,  2-C ) :   1.4080 B(  1-C , 28-H ) :   0.9995 B(  2-C ,  6-C ) :   1.2632
B(  2-C , 26-H ) :   1.0014 B(  3-C ,  4-C ) :   1.2162 B(  3-C ,  5-O ) :   0.9069
B(  4-C ,  6-C ) :   1.3160 B(  4-C ,  9-C ) :   1.0011 B(  5-O , 15-C ) :   0.9988
B(  6-C ,  7-C ) :   1.1179 B(  7-C ,  8-C ) :   1.5203 B(  7-C , 29-H ) :   1.0109
B(  8-C , 10-C ) :   1.1061 B(  8-C , 30-H ) :   1.0200 B(  9-C , 10-C ) :   1.3168
B(  9-C , 11-N ) :   1.3693 B( 10-C , 14-C ) :   1.2824 B( 11-N , 12-C ) :   1.5612
B( 12-C , 13-C ) :   1.3123 B( 12-C , 31-H ) :   0.9756 B( 13-C , 14-C ) :   1.4747
B( 13-C , 32-H ) :   0.9664 B( 14-C , 33-H ) :   0.9711 B( 15-C , 16-O ) :   1.7722
B( 15-C , 17-N ) :   1.3228 B( 17-N , 18-C ) :   0.9476 B( 17-N , 19-C ) :   0.9408
B( 18-C , 23-H ) :   0.9617 B( 18-C , 24-H ) :   0.9612 B( 18-C , 25-H ) :   0.9640
B( 19-C , 20-H ) :   0.9630 B( 19-C , 21-H ) :   0.9641 B( 19-C , 22-H ) :   0.9603

FINAL SINGLE POINT ENERGY      -878.440365738978

DIPOLE MOMENT
-------------
                                X             Y             Z
Electronic contribution:      6.15740      -5.76845      -5.52992
Nuclear contribution   :     -5.43127       5.35999       6.66836
                        -----------------------------------------
Total Dipole Moment    :      0.72613      -0.40846       1.13845
                        -----------------------------------------
Magnitude (a.u.)       :      1.41073
Magnitude (Debye)      :      3.58580

Rotational constants in cm-1:     0.016255     0.010868     0.007093
Rotational constants in MHz :   487.301847   325.811165   212.657683

                             ****ORCA TERMINATED NORMALLY****
TOTAL RUN TIME: 0 days 4 hours 47 minutes 36 seconds 541 msec
