                         Program Version 6.0.1  -  RELEASE   -
|  1> ! CAM-B3LYP VERYTIGHTOPT FREQ Def2-TZVP(-f) TightSCF CPCM(Water)
|  2> %pal nprocs 128 end
|  3>
|  4>
|  5> * xyz 1 1
|  6>   C          -3.37988090847448     -0.95649081105051      1.59998681255287
|  7>   C          -3.17999799887667     -1.86059864849857      2.64430167262198
|  8>   C          -1.98993217353967     -1.89404362392514      3.31787161496418
|  9>   C          -2.41561420937581     -0.02960321022328      1.30256697656497
| 10>   C          -1.21291520843335      0.03988726578492      2.04766075894985
| 11>   O          -2.46377931672568      0.75961562021732      0.18471891266408
| 12>   C          -0.97325957712692     -0.98634899948477      2.99425982762586
| 13>   C           0.33589046313714     -1.17602943932287      3.53723064388047
| 14>   C           1.37755264823990     -0.46086648249396      3.08347942145132
| 15>   C          -0.14843851574394      0.97792305783381      1.81102213290940
| 16>   C           1.16152362692746      0.63455192009845      2.19294881714814
| 17>   N          -0.32284334822190      2.21780430000059      1.22371647720156
| 18>   C           0.72978596528868      2.90023535538634      0.73466788056481
| 19>   C           2.02168543431411      2.46646875953223      0.89133993390096
| 20>   C           2.23624843854749      1.37948112231162      1.70395161963717
| 21>   C          -3.64817219501633      1.05592639388237     -0.45903841894790
| 22>   O          -4.70173326550074      1.15299944212373      0.13389264701466
| 23>   N          -3.45565805524774      1.24855010460091     -1.76598858496055
| 24>   C          -2.18223628320655      1.10498340434534     -2.45208951960569
| 25>   C          -4.56235117835681      1.70635956305184     -2.58736913568368
| 26>   H          -4.74983461194434      0.98663295056947     -3.38488985826714
| 27>   H          -4.31503314831907      2.66920323556530     -3.03671796875183
| 28>   H          -5.45229091201933      1.81033070411390     -1.97796740590455
| 29>   H          -1.79008491791099      2.08512968914845     -2.72856465946944
| 30>   H          -2.33925311698481      0.52406120925908     -3.36078592491353
| 31>   H          -1.46199313047741      0.59416584134289     -1.82608407460844
| 32>   H          -1.79834235728674     -2.64601230694030      4.07118620387656
| 33>   H          -4.28251201395159     -1.00193048700603      1.01327488733732
| 34>   H          -3.95875122587267     -2.57427385497140      2.87713312366887
| 35>   H           0.47830668534994     -1.97144121301545      4.25640630244820
| 36>   H           2.39092475258424     -0.66687250521773      3.39993396321662
| 37>   H           0.50852125159917      3.84424516142773      0.26051254940747
| 38>   H           2.83208368066840      3.03545093758770      0.46269691086820
| 39>   H           3.24213073047830      1.08170586776902      1.97089848316777
| 40>   P          -1.73704781440349      3.25333330655933      1.55609020946273
| 41>   O          -2.69025310901377      2.59029203078681      2.43326143154311
| 42>   O          -2.09369272862783      3.64309342480563      0.09764467001408
| 43>   O          -1.07540544402641      4.54421079418835      2.13492257958247
| 44>   C          -3.00511866773153      4.74966864773786     -0.21979250818506
| 45>   C          -1.00131449573651      4.84202331996036      3.56592624678095
| 46>   C          -2.63720123665341      5.27902674535506     -1.57629389444561
| 47>   H          -2.90400606220618      5.51126032433336      0.55075903583752
| 48>   H          -4.01201229549617      4.33947342537470     -0.19647202861007
| 49>   H          -1.62459458410103      5.68062583448718     -1.57558543719572
| 50>   H          -3.32753305760613      6.08073341220776     -1.83990710428130
| 51>   H          -2.71121204134382      4.49799969396627     -2.33181936297684
| 52>   C           0.36428916808181      4.51322015705128      4.10563265016351
| 53>   H          -1.78839604788872      4.28667097146189      4.06982656758184
| 54>   H          -1.21683443805426      5.90503174718370      3.63001290344051
| 55>   H           0.40495292322459      4.80250049095804      5.15626049185993
| 56>   H           1.13816822616203      5.05993216707955      3.56797005938269
| 57>   H           0.57115566959242      3.44476319875528      4.03825046770398
| 58> *
| 59>
| 60>                          ****END OF INPUT****
 Total Charge           Charge          ....    1
 Multiplicity           Mult            ....    1
 Number of Electrons    NEL             ....  212
FINAL SINGLE POINT ENERGY     -1603.397419408135
                    ***********************HURRAY********************

CARTESIAN COORDINATES (ANGSTROEM)
---------------------------------
  C     -3.379872   -0.956514    1.599931
  C     -3.180001   -1.860653    2.644220
  C     -1.989947   -1.894110    3.317811
  C     -2.415604   -0.029614    1.302552
  C     -1.212910    0.039853    2.047659
  O     -2.463770    0.759646    0.184734
  C     -0.973272   -0.986406    2.994240
  C      0.335869   -1.176104    3.537230
  C      1.377540   -0.460937    3.083510
  C     -0.148422    0.977885    1.811051
  C      1.161531    0.634498    2.192996
  N     -0.322806    2.217776    1.223762
  C      0.729837    2.900206    0.734746
  C      2.021731    2.466430    0.891435
  C      2.236270    1.379425    1.704030
  C     -3.648169    1.055945   -0.459019
  O     -4.701738    1.152951    0.133910
  N     -3.455658    1.248647   -1.765958
  C     -2.182228    1.105169   -2.452061
  C     -4.562374    1.706452   -2.587312
  H     -4.749825    0.986763   -3.384874
  H     -4.315102    2.669332   -3.036606
  H     -5.452317    1.810346   -1.977902
  H     -1.790114    2.085347   -2.728478
  H     -2.339216    0.524293   -3.360791
  H     -1.461968    0.594348   -1.826079
  H     -1.798370   -2.646098    4.071109
  H     -4.282496   -1.001938    1.013207
  H     -3.958757   -2.574336    2.877019
  H      0.478270   -1.971532    4.256391
  H      2.390907   -0.666953    3.399978
  H      0.508589    3.844224    0.260600
  H      2.832140    3.035414    0.462816
  H      3.242145    1.081637    1.970989
  P     -1.737013    3.253312    1.556108
  O     -2.690201    2.590314    2.433329
  O     -2.093684    3.643001    0.097652
  O     -1.075376    4.544232    2.134858
  C     -3.005148    4.749542   -0.219805
  C     -1.001283    4.842137    3.565840
  C     -2.637289    5.278849   -1.576342
  H     -2.904025    5.511165    0.550713
  H     -4.012029    4.339322   -0.196432
  H     -1.624700    5.680489   -1.575686
  H     -3.327663    6.080513   -1.839973
  H     -2.711293    4.497783   -2.331827
  C      0.364314    4.513365    4.105582
  H     -1.788373    4.286833    4.069780
  H     -1.216790    5.905153    3.629854
  H      0.404975    4.802728    5.156187
  H      1.138201    5.060027    3.567878
  H      0.571175    3.444903    4.038288

 Multiplicity           Mult            ....    1
 Number of Electrons    NEL             ....  212
 Basis Dimension        Dim             ....  822

ORBITAL ENERGIES
----------------

  NO   OCC          E(Eh)            E(eV)
   0   2.0000     -77.293069     -2103.2513
   1   2.0000     -19.266980      -524.2812
   2   2.0000     -19.258788      -524.0583
   3   2.0000     -19.255810      -523.9772
   4   2.0000     -19.192162      -522.2453
   5   2.0000     -19.183332      -522.0050
   6   2.0000     -14.506245      -394.7350
   7   2.0000     -14.434602      -392.7855
   8   2.0000     -10.410667      -283.2886
   9   2.0000     -10.354417      -281.7580
  10   2.0000     -10.344479      -281.4876
  11   2.0000     -10.342142      -281.4240
  12   2.0000     -10.317937      -280.7653
  13   2.0000     -10.314107      -280.6611
  14   2.0000     -10.307729      -280.4876
  15   2.0000     -10.300884      -280.3013
  16   2.0000     -10.293728      -280.1066
  17   2.0000     -10.287719      -279.9431
  18   2.0000     -10.287250      -279.9303
  19   2.0000     -10.273332      -279.5516
  20   2.0000     -10.272061      -279.5170
  21   2.0000     -10.271578      -279.5038
  22   2.0000     -10.270957      -279.4869
  23   2.0000     -10.267237      -279.3857
  24   2.0000     -10.260179      -279.1937
  25   2.0000     -10.258485      -279.1476
  26   2.0000     -10.240276      -278.6521
  27   2.0000     -10.239901      -278.6419
  28   2.0000      -6.762057      -184.0049
  29   2.0000      -4.925690      -134.0348
  30   2.0000      -4.924842      -134.0118
  31   2.0000      -4.923223      -133.9677
  32   2.0000      -1.219753       -33.1912
  33   2.0000      -1.205495       -32.8032
  34   2.0000      -1.146277       -31.1918
  35   2.0000      -1.125927       -30.6380
  36   2.0000      -1.117210       -30.4008
  37   2.0000      -1.085588       -29.5403
  38   2.0000      -1.042185       -28.3593
  39   2.0000      -0.994044       -27.0493
  40   2.0000      -0.957192       -26.0465
  41   2.0000      -0.927797       -25.2466
  42   2.0000      -0.896656       -24.3993
  43   2.0000      -0.872964       -23.7546
  44   2.0000      -0.860685       -23.4204
  45   2.0000      -0.856395       -23.3037
  46   2.0000      -0.846516       -23.0349
  47   2.0000      -0.808711       -22.0061
  48   2.0000      -0.801211       -21.8021
  49   2.0000      -0.779965       -21.2239
  50   2.0000      -0.766372       -20.8540
  51   2.0000      -0.751805       -20.4577
  52   2.0000      -0.738824       -20.1044
  53   2.0000      -0.725089       -19.7307
  54   2.0000      -0.716243       -19.4900
  55   2.0000      -0.680107       -18.5066
  56   2.0000      -0.673152       -18.3174
  57   2.0000      -0.648839       -17.6558
  58   2.0000      -0.630915       -17.1681
  59   2.0000      -0.626544       -17.0491
  60   2.0000      -0.620153       -16.8752
  61   2.0000      -0.617773       -16.8104
  62   2.0000      -0.613763       -16.7013
  63   2.0000      -0.586601       -15.9622
  64   2.0000      -0.585821       -15.9410
  65   2.0000      -0.577455       -15.7134
  66   2.0000      -0.570953       -15.5364
  67   2.0000      -0.565031       -15.3753
  68   2.0000      -0.557692       -15.1756
  69   2.0000      -0.552854       -15.0439
  70   2.0000      -0.547802       -14.9065
  71   2.0000      -0.538763       -14.6605
  72   2.0000      -0.534148       -14.5349
  73   2.0000      -0.524206       -14.2644
  74   2.0000      -0.520930       -14.1752
  75   2.0000      -0.517715       -14.0877
  76   2.0000      -0.511331       -13.9140
  77   2.0000      -0.506074       -13.7710
  78   2.0000      -0.497248       -13.5308
  79   2.0000      -0.494251       -13.4493
  80   2.0000      -0.481462       -13.1012
  81   2.0000      -0.479803       -13.0561
  82   2.0000      -0.476830       -12.9752
  83   2.0000      -0.472098       -12.8464
  84   2.0000      -0.469562       -12.7774
  85   2.0000      -0.469131       -12.7657
  86   2.0000      -0.462554       -12.5867
  87   2.0000      -0.458545       -12.4776
  88   2.0000      -0.453296       -12.3348
  89   2.0000      -0.450034       -12.2461
  90   2.0000      -0.448101       -12.1934
  91   2.0000      -0.439011       -11.9461
  92   2.0000      -0.437017       -11.8918
  93   2.0000      -0.427261       -11.6264
  94   2.0000      -0.421696       -11.4749
  95   2.0000      -0.418764       -11.3951
  96   2.0000      -0.410957       -11.1827
  97   2.0000      -0.407680       -11.0935
  98   2.0000      -0.402391       -10.9496
  99   2.0000      -0.392102       -10.6696
 100   2.0000      -0.389054       -10.5867
 101   2.0000      -0.363634        -9.8950
 102   2.0000      -0.353230        -9.6119
 103   2.0000      -0.321752        -8.7553
 104   2.0000      -0.317943        -8.6517
 105   2.0000      -0.289049        -7.8654
 106   0.0000      -0.075404        -2.0518
 107   0.0000      -0.034143        -0.9291
 108   0.0000       0.007948         0.2163
 109   0.0000       0.035634         0.9696
 110   0.0000       0.061115         1.6630

MULLIKEN ATOMIC CHARGES
-----------------------
   0 C :   -0.193355
   1 C :   -0.090333
   2 C :   -0.215857
   3 C :    0.328688
   4 C :    0.082558
   5 O :   -0.519959
   6 C :    0.194112
   7 C :   -0.192646
   8 C :   -0.237687
   9 C :    0.102349
  10 C :    0.313029
  11 N :   -0.306768
  12 C :    0.100764
  13 C :   -0.089590
  14 C :   -0.120014
  15 C :    0.715145
  16 O :   -0.607886
  17 N :   -0.225584
  18 C :   -0.298837
  19 C :   -0.283948
  20 H :    0.157865
  21 H :    0.151684
  22 H :    0.158376
  23 H :    0.152190
  24 H :    0.156403
  25 H :    0.168120
  26 H :    0.134534
  27 H :    0.135554
  28 H :    0.137607
  29 H :    0.141393
  30 H :    0.141668
  31 H :    0.197754
  32 H :    0.162867
  33 H :    0.169296
  34 P :    1.656650
  35 O :   -0.783751
  36 O :   -0.560286
  37 O :   -0.559607
  38 C :   -0.033932
  39 C :   -0.040886
  40 C :   -0.402420
  41 H :    0.158565
  42 H :    0.152991
  43 H :    0.145071
  44 H :    0.154621
  45 H :    0.144467
  46 C :   -0.391707
  47 H :    0.146442
  48 H :    0.152652
  49 H :    0.157270
  50 H :    0.138062
  51 H :    0.146305
Sum of atomic charges:    1.0000000

LOEWDIN ATOMIC CHARGES
----------------------
   0 C :   -0.097832
   1 C :   -0.099580
   2 C :   -0.095152
   3 C :   -0.122353
   4 C :   -0.034123
   5 O :    0.195443
   6 C :   -0.066820
   7 C :   -0.064946
   8 C :   -0.075430
   9 C :   -0.018173
  10 C :   -0.073188
  11 N :    0.089545
  12 C :   -0.055346
  13 C :   -0.095809
  14 C :    0.012931
  15 C :   -0.356480
  16 O :   -0.075266
  17 N :    0.088460
  18 C :   -0.223705
  19 C :   -0.218084
  20 H :    0.118203
  21 H :    0.116184
  22 H :    0.122684
  23 H :    0.113973
  24 H :    0.119516
  25 H :    0.122245
  26 H :    0.152382
  27 H :    0.153743
  28 H :    0.151284
  29 H :    0.157173
  30 H :    0.158329
  31 H :    0.164868
  32 H :    0.164765
  33 H :    0.169485
  34 P :    0.767828
  35 O :   -0.406755
  36 O :   -0.090642
  37 O :   -0.098900
  38 C :   -0.224683
  39 C :   -0.227695
  40 C :   -0.277638
  41 H :    0.126419
  42 H :    0.127529
  43 H :    0.119846
  44 H :    0.129589
  45 H :    0.117369
  46 C :   -0.281885
  47 H :    0.123409
  48 H :    0.128953
  49 H :    0.129220
  50 H :    0.119876
  51 H :    0.119229

  Mayer bond orders larger than 0.100000
B(  0-C ,  1-C ) :   1.2799 B(  0-C ,  3-C ) :   1.4998 B(  0-C , 27-H ) :   0.9711
B(  1-C ,  2-C ) :   1.4399 B(  1-C , 28-H ) :   0.9877 B(  2-C ,  6-C ) :   1.2738
B(  2-C , 26-H ) :   0.9858 B(  3-C ,  4-C ) :   1.2182 B(  3-C ,  5-O ) :   0.9119
B(  4-C ,  6-C ) :   1.3484 B(  4-C ,  9-C ) :   1.1465 B(  5-O , 15-C ) :   0.9517
B(  6-C ,  7-C ) :   1.1464 B(  7-C ,  8-C ) :   1.6024 B(  7-C , 29-H ) :   0.9819
B(  8-C , 10-C ) :   1.1124 B(  8-C , 30-H ) :   0.9868 B(  9-C , 10-C ) :   1.3205
B(  9-C , 11-N ) :   1.0976 B( 10-C , 14-C ) :   1.3056 B( 11-N , 12-C ) :   1.3230
B( 11-N , 34-P ) :   0.7480 B( 12-C , 13-C ) :   1.4325 B( 12-C , 31-H ) :   0.9327
B( 13-C , 14-C ) :   1.3927 B( 13-C , 32-H ) :   0.9654 B( 14-C , 33-H ) :   0.9574
B( 15-C , 16-O ) :   1.8286 B( 15-C , 17-N ) :   1.3742 B( 17-N , 18-C ) :   0.9359
B( 17-N , 19-C ) :   0.9275 B( 18-C , 23-H ) :   0.9601 B( 18-C , 24-H ) :   0.9609
B( 18-C , 25-H ) :   0.9625 B( 19-C , 20-H ) :   0.9631 B( 19-C , 21-H ) :   0.9592
B( 19-C , 22-H ) :   0.9648 B( 34-P , 35-O ) :   1.7483 B( 34-P , 36-O ) :   1.0555
B( 34-P , 37-O ) :   1.0476 B( 36-O , 38-C ) :   0.8227 B( 37-O , 39-C ) :   0.8614
B( 38-C , 40-C ) :   0.9984 B( 38-C , 41-H ) :   0.9526 B( 38-C , 42-H ) :   0.9638
B( 39-C , 46-C ) :   0.9898 B( 39-C , 47-H ) :   0.9726 B( 39-C , 48-H ) :   0.9594
B( 40-C , 43-H ) :   0.9725 B( 40-C , 44-H ) :   0.9670 B( 40-C , 45-H ) :   0.9698
B( 46-C , 49-H ) :   0.9622 B( 46-C , 50-H ) :   0.9704 B( 46-C , 51-H ) :   0.9687

FINAL SINGLE POINT ENERGY     -1603.397419320836

DIPOLE MOMENT
-------------

Method             : SCF
Type of density    : Electron Density
Multiplicity       :   1
Irrep              :   0
Energy             : -1603.3974193208362067 Eh
Relativity type    :
Basis              : AO
                                X                 Y                 Z
Electronic contribution:      3.853965929     -11.991632025       9.969629029
Nuclear contribution   :      0.616821072      13.362209762     -10.962284620
                        -----------------------------------------
Total Dipole Moment    :      4.470787000       1.370577737      -0.992655591
                        -----------------------------------------
Magnitude (a.u.)       :      4.780354052
Magnitude (Debye)      :     12.150694368

VIBRATIONAL FREQUENCIES
-----------------------

Scaling factor for frequencies =  1.000000000  (already applied!)

     0:       0.00 cm**-1
     1:       0.00 cm**-1
     2:       0.00 cm**-1
     3:       0.00 cm**-1
     4:       0.00 cm**-1
     5:       0.00 cm**-1
     6:      30.69 cm**-1
     7:      36.26 cm**-1
     8:      37.27 cm**-1
     9:      46.21 cm**-1
    10:      52.33 cm**-1
    11:      59.00 cm**-1
    12:      64.80 cm**-1
    13:      68.25 cm**-1
    14:      75.59 cm**-1
    15:      81.83 cm**-1
    16:      88.89 cm**-1
    17:     102.32 cm**-1
    18:     113.67 cm**-1
    19:     124.24 cm**-1
    20:     137.50 cm**-1
    21:     160.80 cm**-1
    22:     191.38 cm**-1
    23:     205.65 cm**-1
    24:     213.52 cm**-1
    25:     229.44 cm**-1
    26:     246.50 cm**-1
    27:     250.20 cm**-1
    28:     258.66 cm**-1
    29:     262.29 cm**-1
    30:     275.52 cm**-1
    31:     291.92 cm**-1
    32:     308.44 cm**-1
    33:     321.73 cm**-1
    34:     350.78 cm**-1
    35:     369.48 cm**-1
    36:     390.88 cm**-1
    37:     403.73 cm**-1
    38:     421.72 cm**-1
    39:     448.45 cm**-1
    40:     457.01 cm**-1
    41:     481.26 cm**-1
    42:     495.24 cm**-1
    43:     508.62 cm**-1
    44:     520.93 cm**-1
    45:     528.25 cm**-1
    46:     542.66 cm**-1
    47:     552.71 cm**-1
    48:     570.72 cm**-1
    49:     600.92 cm**-1
    50:     633.98 cm**-1
    51:     642.64 cm**-1
    52:     680.04 cm**-1
    53:     725.11 cm**-1
    54:     740.29 cm**-1
    55:     751.67 cm**-1
    56:     765.69 cm**-1
    57:     781.42 cm**-1
    58:     794.46 cm**-1
    59:     806.49 cm**-1
    60:     811.62 cm**-1
    61:     821.93 cm**-1
    62:     827.32 cm**-1
    63:     835.59 cm**-1
    64:     848.75 cm**-1
    65:     873.44 cm**-1
    66:     877.87 cm**-1
    67:     928.53 cm**-1
    68:     934.64 cm**-1
    69:     977.09 cm**-1
    70:     995.82 cm**-1
    71:    1005.77 cm**-1
    72:    1011.46 cm**-1
    73:    1014.88 cm**-1
    74:    1021.61 cm**-1
    75:    1036.58 cm**-1
    76:    1043.11 cm**-1
    77:    1046.38 cm**-1
    78:    1065.04 cm**-1
    79:    1085.85 cm**-1
    80:    1089.68 cm**-1
    81:    1125.89 cm**-1
    82:    1129.21 cm**-1
    83:    1132.05 cm**-1
    84:    1134.95 cm**-1
    85:    1149.53 cm**-1
    86:    1168.65 cm**-1
    87:    1170.76 cm**-1
    88:    1183.85 cm**-1
    89:    1185.27 cm**-1
    90:    1186.03 cm**-1
    91:    1196.22 cm**-1
    92:    1211.69 cm**-1
    93:    1229.95 cm**-1
    94:    1242.47 cm**-1
    95:    1275.93 cm**-1
    96:    1290.49 cm**-1
    97:    1307.70 cm**-1
    98:    1310.59 cm**-1
    99:    1322.80 cm**-1
   100:    1329.15 cm**-1
   101:    1338.73 cm**-1
   102:    1363.37 cm**-1
   103:    1367.85 cm**-1
   104:    1412.08 cm**-1
   105:    1414.30 cm**-1
   106:    1430.03 cm**-1
   107:    1434.37 cm**-1
   108:    1438.11 cm**-1
   109:    1446.28 cm**-1
   110:    1448.99 cm**-1
   111:    1468.14 cm**-1
   112:    1472.55 cm**-1
   113:    1475.55 cm**-1
   114:    1482.01 cm**-1
   115:    1484.95 cm**-1
   116:    1488.33 cm**-1
   117:    1489.87 cm**-1
   118:    1491.35 cm**-1
   119:    1493.20 cm**-1
   120:    1498.19 cm**-1
   121:    1498.60 cm**-1
   122:    1514.60 cm**-1
   123:    1516.01 cm**-1
   124:    1539.75 cm**-1
   125:    1552.10 cm**-1
   126:    1588.97 cm**-1
   127:    1641.18 cm**-1
   128:    1655.34 cm**-1
   129:    1681.00 cm**-1
   130:    1701.62 cm**-1
   131:    1758.52 cm**-1
   132:    3060.84 cm**-1
   133:    3063.10 cm**-1
   134:    3064.68 cm**-1
   135:    3068.54 cm**-1
   136:    3103.08 cm**-1
   137:    3114.11 cm**-1
   138:    3116.47 cm**-1
   139:    3120.38 cm**-1
   140:    3133.50 cm**-1
   141:    3138.67 cm**-1
   142:    3138.76 cm**-1
   143:    3142.72 cm**-1
   144:    3165.53 cm**-1
   145:    3173.54 cm**-1
   146:    3198.96 cm**-1
   147:    3209.04 cm**-1
   148:    3210.12 cm**-1
   149:    3213.64 cm**-1
   150:    3219.40 cm**-1
   151:    3223.84 cm**-1
   152:    3228.09 cm**-1
   153:    3249.99 cm**-1
   154:    3260.44 cm**-1
   155:    3262.73 cm**-1

IR SPECTRUM
-----------

 Mode   freq       eps      Int      T**2         TX        TY        TZ
       cm**-1   L/(mol*cm) km/mol    a.u.
----------------------------------------------------------------------------
  6:     30.69   0.000560    2.83  0.005697  (-0.017489 -0.071301 -0.017540)
  7:     36.26   0.000114    0.58  0.000983  (-0.004990  0.022594 -0.021154)
  8:     37.27   0.000143    0.72  0.001194  (-0.001294 -0.030581  0.016030)
  9:     46.21   0.000399    2.02  0.002695  ( 0.039566  0.032377 -0.009006)
 10:     52.33   0.000341    1.72  0.002033  ( 0.019597  0.027404  0.029959)
 11:     59.00   0.000075    0.38  0.000395  ( 0.015829 -0.009821 -0.006917)
 12:     64.80   0.000608    3.07  0.002930  (-0.037348 -0.022373  0.032158)
 13:     68.25   0.000025    0.13  0.000116  ( 0.010174  0.002438  0.002463)
 14:     75.59   0.000211    1.07  0.000871  (-0.026491 -0.006614 -0.011209)
 15:     81.83   0.000443    2.24  0.001688  ( 0.011029 -0.006990 -0.038952)
 16:     88.89   0.000625    3.16  0.002194  (-0.012159  0.044201 -0.009623)
 17:    102.32   0.002002   10.12  0.006106  (-0.006186 -0.070472 -0.033188)
 18:    113.67   0.000291    1.47  0.000800  ( 0.012864 -0.008704  0.023630)
 19:    124.24   0.001078    5.45  0.002707  (-0.026849 -0.025161 -0.036780)
 20:    137.50   0.000215    1.09  0.000487  ( 0.005934 -0.021250  0.000767)
 21:    160.80   0.000426    2.15  0.000827  (-0.028047 -0.005926 -0.002333)
 22:    191.38   0.000019    0.10  0.000031  (-0.001532 -0.003726 -0.003806)
 23:    205.65   0.002631   13.29  0.003992  (-0.030025  0.002735 -0.055525)
 24:    213.52   0.000550    2.78  0.000804  ( 0.015208  0.013528  0.019742)
 25:    229.44   0.001642    8.30  0.002233  ( 0.016612 -0.039359  0.020205)
 26:    246.50   0.003581   18.10  0.004534  (-0.030484  0.060037  0.000544)
 27:    250.20   0.002243   11.34  0.002798  ( 0.006444  0.052264 -0.004955)
 28:    258.66   0.000718    3.63  0.000866  ( 0.008873  0.023063  0.015969)
 29:    262.29   0.000553    2.80  0.000658  (-0.001360  0.021092 -0.014538)
 30:    275.52   0.000457    2.31  0.000517  (-0.016100  0.009606  0.012882)
 31:    291.92   0.002371   11.98  0.002535  ( 0.012866  0.041471  0.025491)
 32:    308.44   0.001556    7.86  0.001574  ( 0.036907  0.008386  0.011899)
 33:    321.73   0.002956   14.94  0.002867  (-0.037327  0.009151 -0.037281)
 34:    350.78   0.002751   13.90  0.002447  ( 0.024225 -0.024869  0.035242)
 35:    369.48   0.005936   30.00  0.005014  (-0.056797 -0.018104 -0.038211)
 36:    390.88   0.001601    8.09  0.001278  (-0.021551 -0.024012 -0.015409)
 37:    403.73   0.002632   13.30  0.002035  ( 0.009599  0.000848  0.044067)
 38:    421.72   0.002384   12.05  0.001764  (-0.023933 -0.030390  0.016362)
 39:    448.45   0.001971    9.96  0.001372  (-0.031290 -0.009446 -0.017424)
 40:    457.01   0.006186   31.26  0.004224  ( 0.011877  0.055113  0.032331)
 41:    481.26   0.001725    8.72  0.001119  ( 0.022904 -0.001287  0.024339)
 42:    495.24   0.000928    4.69  0.000585  (-0.015300  0.010543 -0.015476)
 43:    508.62   0.005425   27.42  0.003329  ( 0.000210  0.033799  0.046758)
 44:    520.93   0.004643   23.46  0.002781  ( 0.010358 -0.013987  0.049781)
 45:    528.25   0.002234   11.29  0.001320  (-0.004243 -0.025547 -0.025483)
 46:    542.66   0.050776  256.60  0.029200  (-0.095413  0.140994  0.014726)
 47:    552.71   0.005443   27.51  0.003073  (-0.039400  0.038279 -0.007452)
 48:    570.72   0.007813   39.48  0.004272  ( 0.058304 -0.029407 -0.002830)
 49:    600.92   0.003955   19.99  0.002054  (-0.016290  0.033671  0.025594)
 50:    633.98   0.001184    5.98  0.000583  (-0.007831 -0.006935  0.021754)
 51:    642.64   0.009668   48.86  0.004695  (-0.052485  0.010992 -0.042655)
 52:    680.04   0.005439   27.49  0.002496  ( 0.016400 -0.015011 -0.044740)
 53:    725.11   0.007234   36.56  0.003113  ( 0.031794  0.020633  0.040950)
 54:    740.29   0.014949   75.55  0.006302  ( 0.015275  0.073248  0.026516)
 55:    751.67   0.006896   34.85  0.002863  (-0.040365 -0.005831  0.034635)
 56:    765.69   0.008125   41.06  0.003312  (-0.040469  0.009894 -0.039697)
 57:    781.42   0.026454  133.69  0.010565  (-0.019621  0.099626  0.015942)
 58:    794.46   0.004851   24.52  0.001906  (-0.006991  0.019988  0.038173)
 59:    806.49   0.003630   18.34  0.001405  (-0.028688  0.007231 -0.023006)
 60:    811.62   0.012631   63.83  0.004857  (-0.009502 -0.064222 -0.025335)
 61:    821.93   0.000124    0.63  0.000047  (-0.000111 -0.000569 -0.006831)
 62:    827.32   0.004789   24.20  0.001807  (-0.014142  0.039680  0.005664)
 63:    835.59   0.000983    4.97  0.000367  ( 0.014688 -0.009827 -0.007406)
 64:    848.75   0.012580   63.58  0.004625  (-0.021981 -0.021934 -0.060508)
 65:    873.44   0.013987   70.68  0.004997  (-0.016899  0.038719  0.056678)
 66:    877.87   0.004693   23.71  0.001668  ( 0.019891 -0.028865 -0.020959)
 67:    928.53   0.010521   53.17  0.003536  ( 0.021766 -0.055167 -0.004319)
 68:    934.64   0.004407   22.27  0.001472  (-0.020339  0.030805 -0.010436)
 69:    977.09   0.021624  109.28  0.006906  ( 0.005547  0.076902  0.031010)
 70:    995.82   0.001575    7.96  0.000494  (-0.016515  0.001311  0.014802)
 71:   1005.77   0.007692   38.87  0.002387  (-0.002647 -0.047121  0.012614)
 72:   1011.46   0.008364   42.27  0.002581  (-0.020977 -0.014910 -0.043799)
 73:   1014.88   0.000072    0.36  0.000022  ( 0.003394  0.002358  0.002257)
 74:   1021.61   0.000386    1.95  0.000118  (-0.001623  0.005290  0.009335)
 75:   1036.58   0.194547  983.16  0.058569  ( 0.131818 -0.044588  0.198002)
 76:   1043.11   0.008638   43.65  0.002584  (-0.021364 -0.007149 -0.045570)
 77:   1046.38   0.018290   92.43  0.005455  (-0.017512 -0.040623 -0.059141)
 78:   1065.04   0.085854  433.87  0.025156  ( 0.065532 -0.141945 -0.026704)
 79:   1085.85   0.028083  141.92  0.008071  ( 0.075483 -0.017267  0.045550)
 80:   1089.68   0.003593   18.16  0.001029  ( 0.022980 -0.004023  0.022015)
 81:   1125.89   0.003899   19.70  0.001081  (-0.022786  0.018578  0.014711)
 82:   1129.21   0.000841    4.25  0.000232  (-0.005094 -0.013921 -0.003565)
 83:   1132.05   0.002310   11.67  0.000637  (-0.002123  0.000990  0.025124)
 84:   1134.95   0.000563    2.84  0.000155  (-0.001774 -0.002777  0.011994)
 85:   1149.53   0.004008   20.26  0.001088  ( 0.020312  0.024311 -0.009190)
 86:   1168.65   0.059412  300.24  0.015865  ( 0.078894 -0.040652  0.089374)
 87:   1170.76   0.140261  708.82  0.037386  (-0.078063  0.054643 -0.168245)
 88:   1183.85   0.006221   31.44  0.001640  ( 0.032523  0.021930 -0.010064)
 89:   1185.27   0.003495   17.66  0.000920  ( 0.024101  0.006054  0.017401)
 90:   1186.03   0.023833  120.44  0.006271  ( 0.029956 -0.038143  0.062599)
 91:   1196.22   0.006595   33.33  0.001720  (-0.009729 -0.036969 -0.016093)
 92:   1211.69   0.014003   70.77  0.003607  (-0.033581  0.013380 -0.047956)
 93:   1229.95   0.010740   54.27  0.002725  ( 0.012498  0.019721 -0.046688)
 94:   1242.47   0.002983   15.08  0.000749  (-0.016990  0.004204 -0.021046)
 95:   1275.93   0.033377  168.67  0.008163  ( 0.066533 -0.021257  0.057312)
 96:   1290.49   0.036088  182.37  0.008727  (-0.057217  0.050100 -0.054248)
 97:   1307.70   0.013406   67.75  0.003199  (-0.004879  0.048996 -0.027837)
 98:   1310.59   0.002205   11.14  0.000525  ( 0.011195  0.009261  0.017718)
 99:   1322.80   0.021645  109.39  0.005106  (-0.049393 -0.042120  0.029877)
100:   1329.15   0.002567   12.97  0.000603  ( 0.010159  0.017952  0.013316)
101:   1338.73   0.048665  245.93  0.011344  ( 0.059795  0.061083 -0.063541)
102:   1363.37   0.001815    9.17  0.000416  ( 0.006077  0.014978 -0.012420)
103:   1367.85   0.030309  153.17  0.006915  (-0.062823  0.016958 -0.051773)
104:   1412.08   0.001062    5.37  0.000235  (-0.012957  0.001011 -0.008116)
105:   1414.30   0.003856   19.49  0.000851  ( 0.017598  0.008669 -0.021587)
106:   1430.03   0.003569   18.04  0.000779  (-0.018826 -0.001505 -0.020548)
107:   1434.37   0.002261   11.43  0.000492  ( 0.004132 -0.018041  0.012220)
108:   1438.11   0.064760  327.27  0.014053  ( 0.025396 -0.057863  0.100297)
109:   1446.28   0.045309  228.97  0.009776  (-0.061191 -0.073494  0.025109)
110:   1448.99   0.006821   34.47  0.001469  (-0.018835 -0.007214  0.032592)
111:   1468.14   0.003275   16.55  0.000696  (-0.023636  0.009838 -0.006374)
112:   1472.55   0.009598   48.50  0.002034  (-0.040378  0.014117 -0.014292)
113:   1475.55   0.003964   20.03  0.000838  (-0.021542 -0.014669 -0.012614)
114:   1482.01   0.001909    9.65  0.000402  ( 0.003628  0.018714 -0.006216)
115:   1484.95   0.003275   16.55  0.000688  (-0.003917 -0.014403  0.021574)
116:   1488.33   0.024353  123.07  0.005106  (-0.015504 -0.047686  0.050911)
117:   1489.87   0.000310    1.57  0.000065  (-0.001994 -0.002889  0.007260)
118:   1491.35   0.000894    4.52  0.000187  ( 0.002502 -0.013429  0.000727)
119:   1493.20   0.011100   56.10  0.002320  ( 0.006373  0.047464  0.005139)
120:   1498.19   0.016646   84.12  0.003467  ( 0.049890  0.031045  0.003808)
121:   1498.60   0.008779   44.37  0.001828  ( 0.039624  0.014945  0.005894)
122:   1514.60   0.001870    9.45  0.000385  (-0.015354  0.006090  0.010603)
123:   1516.01   0.001779    8.99  0.000366  ( 0.008742 -0.013963 -0.009742)
124:   1539.75   0.030448  153.87  0.006171  ( 0.054700 -0.014257  0.054548)
125:   1552.10   0.005350   27.04  0.001076  ( 0.008172  0.023927 -0.020891)
126:   1588.97   0.011658   58.91  0.002289  (-0.006755  0.046629 -0.008341)
127:   1641.18   0.040618  205.27  0.007723  (-0.019043  0.076039 -0.039734)
128:   1655.34   0.015780   79.75  0.002975  ( 0.054239  0.005280  0.002241)
129:   1681.00   0.007749   39.16  0.001438  ( 0.016790  0.033153 -0.007577)
130:   1701.62   0.018851   95.27  0.003457  (-0.055671 -0.018154 -0.005324)
131:   1758.52   0.223338  1128.66  0.039633  ( 0.124439  0.007763 -0.155203)
132:   3060.84   0.005325   26.91  0.000543  (-0.021512  0.004087 -0.007961)
133:   3063.10   0.001850    9.35  0.000189  ( 0.012261 -0.004764  0.003935)
134:   3064.68   0.011989   60.59  0.001221  ( 0.006376  0.010726 -0.032635)
135:   3068.54   0.005139   25.97  0.000523  (-0.005603 -0.007481  0.020863)
136:   3103.08   0.003817   19.29  0.000384  (-0.016266  0.009325  0.005686)
137:   3114.11   0.003004   15.18  0.000301  ( 0.009451 -0.011191 -0.009298)
138:   3116.47   0.009836   49.71  0.000985  ( 0.008044  0.028790  0.009558)
139:   3120.38   0.001103    5.57  0.000110  ( 0.002823  0.007822  0.006415)
140:   3133.50   0.004214   21.30  0.000420  (-0.000482 -0.019467 -0.006363)
141:   3138.67   0.004744   23.97  0.000472  ( 0.018807 -0.003539 -0.010266)
142:   3138.76   0.001741    8.80  0.000173  (-0.000567 -0.000981 -0.013109)
143:   3142.72   0.002791   14.11  0.000277  (-0.009638  0.011552  0.007131)
144:   3165.53   0.005272   26.64  0.000520  (-0.014766 -0.014207 -0.009991)
145:   3173.54   0.002969   15.00  0.000292  ( 0.003911  0.016021 -0.004473)
146:   3198.96   0.000396    2.00  0.000039  (-0.005791  0.001656  0.001524)
147:   3209.04   0.000793    4.01  0.000077  ( 0.006268 -0.004818  0.003823)
148:   3210.12   0.000103    0.52  0.000010  (-0.002949 -0.001114  0.000346)
149:   3213.64   0.000411    2.08  0.000040  ( 0.005824  0.002149  0.001185)
150:   3219.40   0.000076    0.38  0.000007  ( 0.002442 -0.000714  0.000943)
151:   3223.84   0.001296    6.55  0.000125  (-0.006060 -0.007867  0.005180)
152:   3228.09   0.000472    2.39  0.000046  (-0.000437  0.005073 -0.004444)
153:   3249.99   0.001703    8.61  0.000164  ( 0.006146 -0.010198  0.004666)
154:   3260.44   0.003789   19.15  0.000363  ( 0.005887  0.016136 -0.008224)
155:   3262.73   0.000596    3.01  0.000057  ( 0.007389  0.001542  0.000150)

--------------------------
THERMOCHEMISTRY AT 298.15K
--------------------------

Temperature         ...   298.15 K
Pressure            ...     1.00 atm
Total Mass          ...   403.39 AMU
Quasi RRHO          ...     True
Cut-Off Frequency   ...     1.00 cm^-1

Throughout the following assumptions are being made:
  (1) The electronic state is orbitally nondegenerate
  (2) There are no thermally accessible electronically excited states
  (3) Hindered rotations indicated by low frequency modes are not
      treated as such but are treated as vibrations and this may
      cause some error
  (4) All equations used are the standard statistical mechanics
      equations for an ideal gas
  (5) All vibrations are strictly harmonic

freq.      30.69  E(vib)   ...       0.55
freq.      36.26  E(vib)   ...       0.54
freq.      37.27  E(vib)   ...       0.54
freq.      46.21  E(vib)   ...       0.53
freq.      52.33  E(vib)   ...       0.52
freq.      59.00  E(vib)   ...       0.51
freq.      64.80  E(vib)   ...       0.50
freq.      68.25  E(vib)   ...       0.50
freq.      75.59  E(vib)   ...       0.49
freq.      81.83  E(vib)   ...       0.48
freq.      88.89  E(vib)   ...       0.47
freq.     102.32  E(vib)   ...       0.46
freq.     113.67  E(vib)   ...       0.44
freq.     124.24  E(vib)   ...       0.43
freq.     137.50  E(vib)   ...       0.42
freq.     160.80  E(vib)   ...       0.39
freq.     191.38  E(vib)   ...       0.36
freq.     205.65  E(vib)   ...       0.35
freq.     213.52  E(vib)   ...       0.34
freq.     229.44  E(vib)   ...       0.32
freq.     246.50  E(vib)   ...       0.31
freq.     250.20  E(vib)   ...       0.31
freq.     258.66  E(vib)   ...       0.30
freq.     262.29  E(vib)   ...       0.29
freq.     275.52  E(vib)   ...       0.28
freq.     291.92  E(vib)   ...       0.27
freq.     308.44  E(vib)   ...       0.26
freq.     321.73  E(vib)   ...       0.25
freq.     350.78  E(vib)   ...       0.23
freq.     369.48  E(vib)   ...       0.21
freq.     390.88  E(vib)   ...       0.20
freq.     403.73  E(vib)   ...       0.19
freq.     421.72  E(vib)   ...       0.18
freq.     448.45  E(vib)   ...       0.17
freq.     457.01  E(vib)   ...       0.16
freq.     481.26  E(vib)   ...       0.15
freq.     495.24  E(vib)   ...       0.14
freq.     508.62  E(vib)   ...       0.14
freq.     520.93  E(vib)   ...       0.13
freq.     528.25  E(vib)   ...       0.13
freq.     542.66  E(vib)   ...       0.12
freq.     552.71  E(vib)   ...       0.12
freq.     570.72  E(vib)   ...       0.11
freq.     600.92  E(vib)   ...       0.10
freq.     633.98  E(vib)   ...       0.09
freq.     642.64  E(vib)   ...       0.09
freq.     680.04  E(vib)   ...       0.08
freq.     725.11  E(vib)   ...       0.06
freq.     740.29  E(vib)   ...       0.06
freq.     751.67  E(vib)   ...       0.06
freq.     765.69  E(vib)   ...       0.06
freq.     781.42  E(vib)   ...       0.05
freq.     794.46  E(vib)   ...       0.05
freq.     806.49  E(vib)   ...       0.05
freq.     811.62  E(vib)   ...       0.05
freq.     821.93  E(vib)   ...       0.05
freq.     827.32  E(vib)   ...       0.04
freq.     835.59  E(vib)   ...       0.04
freq.     848.75  E(vib)   ...       0.04
freq.     873.44  E(vib)   ...       0.04
freq.     877.87  E(vib)   ...       0.04
freq.     928.53  E(vib)   ...       0.03
freq.     934.64  E(vib)   ...       0.03
freq.     977.09  E(vib)   ...       0.03
freq.     995.82  E(vib)   ...       0.02
freq.    1005.77  E(vib)   ...       0.02
freq.    1011.46  E(vib)   ...       0.02
freq.    1014.88  E(vib)   ...       0.02
freq.    1021.61  E(vib)   ...       0.02
freq.    1036.58  E(vib)   ...       0.02
freq.    1043.11  E(vib)   ...       0.02
freq.    1046.38  E(vib)   ...       0.02
freq.    1065.04  E(vib)   ...       0.02
freq.    1085.85  E(vib)   ...       0.02
freq.    1089.68  E(vib)   ...       0.02
freq.    1125.89  E(vib)   ...       0.01
freq.    1129.21  E(vib)   ...       0.01
freq.    1132.05  E(vib)   ...       0.01
freq.    1134.95  E(vib)   ...       0.01
freq.    1149.53  E(vib)   ...       0.01
freq.    1168.65  E(vib)   ...       0.01
freq.    1170.76  E(vib)   ...       0.01
freq.    1183.85  E(vib)   ...       0.01
freq.    1185.27  E(vib)   ...       0.01
freq.    1186.03  E(vib)   ...       0.01
freq.    1196.22  E(vib)   ...       0.01
freq.    1211.69  E(vib)   ...       0.01
freq.    1229.95  E(vib)   ...       0.01
freq.    1242.47  E(vib)   ...       0.01
freq.    1275.93  E(vib)   ...       0.01
freq.    1290.49  E(vib)   ...       0.01
freq.    1307.70  E(vib)   ...       0.01
freq.    1310.59  E(vib)   ...       0.01
freq.    1322.80  E(vib)   ...       0.01
freq.    1329.15  E(vib)   ...       0.01
freq.    1338.73  E(vib)   ...       0.01
freq.    1363.37  E(vib)   ...       0.01
freq.    1367.85  E(vib)   ...       0.01
freq.    1412.08  E(vib)   ...       0.00
freq.    1414.30  E(vib)   ...       0.00
freq.    1430.03  E(vib)   ...       0.00
freq.    1434.37  E(vib)   ...       0.00
freq.    1438.11  E(vib)   ...       0.00
freq.    1446.28  E(vib)   ...       0.00
freq.    1448.99  E(vib)   ...       0.00
freq.    1468.14  E(vib)   ...       0.00
freq.    1472.55  E(vib)   ...       0.00
freq.    1475.55  E(vib)   ...       0.00
freq.    1482.01  E(vib)   ...       0.00
freq.    1484.95  E(vib)   ...       0.00
freq.    1488.33  E(vib)   ...       0.00
freq.    1489.87  E(vib)   ...       0.00
freq.    1491.35  E(vib)   ...       0.00
freq.    1493.20  E(vib)   ...       0.00
freq.    1498.19  E(vib)   ...       0.00
freq.    1498.60  E(vib)   ...       0.00
freq.    1514.60  E(vib)   ...       0.00
freq.    1516.01  E(vib)   ...       0.00
freq.    1539.75  E(vib)   ...       0.00
freq.    1552.10  E(vib)   ...       0.00
freq.    1588.97  E(vib)   ...       0.00
freq.    1641.18  E(vib)   ...       0.00
freq.    1655.34  E(vib)   ...       0.00
freq.    1681.00  E(vib)   ...       0.00
freq.    1701.62  E(vib)   ...       0.00
freq.    1758.52  E(vib)   ...       0.00
freq.    3060.84  E(vib)   ...       0.00
freq.    3063.10  E(vib)   ...       0.00
freq.    3064.68  E(vib)   ...       0.00
freq.    3068.54  E(vib)   ...       0.00
freq.    3103.08  E(vib)   ...       0.00
freq.    3114.11  E(vib)   ...       0.00
freq.    3116.47  E(vib)   ...       0.00
freq.    3120.38  E(vib)   ...       0.00
freq.    3133.50  E(vib)   ...       0.00
freq.    3138.67  E(vib)   ...       0.00
freq.    3138.76  E(vib)   ...       0.00
freq.    3142.72  E(vib)   ...       0.00
freq.    3165.53  E(vib)   ...       0.00
freq.    3173.54  E(vib)   ...       0.00
freq.    3198.96  E(vib)   ...       0.00
freq.    3209.04  E(vib)   ...       0.00

Rotational constants in cm-1:     0.007260     0.006139     0.004372

                             ****ORCA TERMINATED NORMALLY****
TOTAL RUN TIME: 0 days 7 hours 16 minutes 42 seconds 131 msec
