                         Program Version 6.0.1  -  RELEASE   -
|  1> !XTB goat ddCOSMO(water)
|  2>
|  3> * xyz 1 1
|  4> C  -4.60302609667061979337 1.00765404352467458082 0.69630464773729627836
|  5> C  -5.25898751232179151316 0.23638645409060898839 1.65189527940882241452
|  6> C  -4.53777144003732146871 -0.52257133574740066706 2.54546926861755018479
|  7> C  -3.22726792550890406730 1.11205280610654466678 0.71016307384989785234
|  8> C  -2.47764084750447199923 0.47516161939125622915 1.71966213075371499031
|  9> O  -2.62565600958491351946 1.77801216784146731698 -0.33870095698569202547
| 10> C  -3.14035237883168205641 -0.44994678579993252487 2.57011987759406856924
| 11> C  -2.36036007542766768097 -1.33881533656422901934 3.36934855041028402667
| 12> C  -1.01061368402474771599 -1.37019873595498520302 3.27235002945548103526
| 13> C  -1.06925701228842839896 0.63170082086071488447 1.86311062052905751507
| 14> C  -0.31568550558282099106 -0.38106341817147565409 2.51629845967836640597
| 15> N  -0.42507330325859471465 1.74585492616015391931 1.43658663616340120939
| 16> C  0.90979641924751242232 1.77475226690163268017 1.33816966628529399053
| 17> C  1.68686858523005311916 0.71616818210145838375 1.75313247805147631730
| 18> C  1.07612201762816006578 -0.33375479582920486443 2.42086191108930215421
| 19> C  -1.71187270045703199273 1.06723384081856731420 -1.10432857044192411777
| 20> O  -1.06951565823252914278 0.14230514949908942834 -0.65847719289246697816
| 21> N  -1.62129256456992720814 1.53942830539339259310 -2.34846500259330026594
| 22> C  -2.48985631067960477836 2.53852516186872190218 -2.92508899611288653020
| 23> C  -0.66861505872186466348 0.94180741222376807009 -3.25958963017478531299
| 24> H  -1.19083913780163452856 0.47755858047397192756 -4.09761520518966371185
| 25> H  -0.09878736746505689670 0.18344237494386356202 -2.72859345459783542154
| 26> H  0.00644125610664134270 1.70821940388877480110 -3.64288087380966008055
| 27> H  -1.89424967763565299528 3.36705140273259795336 -3.31143704247504988558
| 28> H  -3.18611882003580371148 2.91123342755720981856 -2.18115945269123479022
| 29> H  -3.04943617837490199562 2.09923081381553799929 -3.75437938474086374541
| 30> H  -5.04002721824923138882 -1.19865732358781706957 3.21973658022848141513
| 31> H  -5.15832583622734031081 1.51738368778864085584 -0.07487608784157098740
| 32> H  -6.33660383642606550580 0.18986165432104420980 1.64453041856990256342
| 33> H  -2.88289119899900914135 -2.04189153694627112401 3.99970653118721708452
| 34> H  -0.42815621558934136015 -2.11615682199516186301 3.78959928714116189852
| 35> H  1.32701221885334841311 2.68987926808860233763 0.94608193108393678905
| 36> H  2.75553725829829332383 0.74770127514089834708 1.61848851804441062896
| 37> H  1.66735624461195142132 -1.11436415160872948071 2.87570199324261288609
| 38> P  -1.20214585554049757654 3.33971300217145472544 1.46079457252986011362
| 39> O  -2.58900828124118032036 3.39204910962358408000 1.89080779794565612129
| 40> O  -0.75781969370789092899 3.83895943955988672158 0.03751003318820263222
| 41> O  -0.18587651072546232389 4.07148483681848816218 2.44262318075786977190
| 42> C  -1.46593951381287301849 4.95646084999865532694 -0.52682791550020802163
| 43> C  -0.55936683153478006236 4.28782696844349153764 3.80645288271160220361
| 44> C  -1.24473053940313471699 6.22894513057018350821 0.26543385890481763223
| 45> H  -2.53107879186440820618 4.71180598086127044866 -0.55991872102886020013
| 46> H  -1.07134651082957743640 5.04679873385157229393 -1.54084284898889944948
| 47> H  -1.68283868911796541390 6.12812118228480784410 1.25693049239429166519
| 48> H  -1.71996420097952884554 7.06230452679771492086 -0.24506769615289589193
| 49> H  -0.18214901822082960048 6.43549046166008320569 0.36718364505029127409
| 50> C  -0.44624651417089472583 3.01438736954959107806 4.62370434168113675355
| 51> H  -1.58570198411875873390 4.66249965634817442606 3.83845449866772714387
| 52> H  0.12704623473763351771 5.05547182658485105833 4.16862563235751526491
| 53> H  0.55463097069264333250 2.59470959414922752728 4.54422469788304717042
| 54> H  -1.17332372146386232359 2.28222433006777780662 4.27363601266496573317
| 55> H  -0.65130498959977300988 3.23462221338720201658 5.66739949125680908537
| 56> **                         ****END OF INPUT****
FINAL SINGLE POINT ENERGY       -83.643436753950
FINAL SINGLE POINT ENERGY       -83.642990515760
FINAL SINGLE POINT ENERGY       -83.643495341790
FINAL SINGLE POINT ENERGY       -83.643891162510
FINAL SINGLE POINT ENERGY       -83.643874491600
FINAL SINGLE POINT ENERGY       -83.644271341230
FINAL SINGLE POINT ENERGY       -83.644286005590
FINAL SINGLE POINT ENERGY       -83.644333946220
FINAL SINGLE POINT ENERGY       -83.644338915150
FINAL SINGLE POINT ENERGY       -83.644344823520
FINAL SINGLE POINT ENERGY       -83.644347122730
FINAL SINGLE POINT ENERGY       -83.644348170460
FINAL SINGLE POINT ENERGY       -83.644348853800
                    ***********************HURRAY********************

CARTESIAN COORDINATES (ANGSTROEM)
---------------------------------
  C    -4.642379    0.900744    0.699173
  C    -5.281566    0.130760    1.669261
  C    -4.543274   -0.585647    2.580954
  C    -3.271696    1.042066    0.717319
  C    -2.504910    0.442877    1.736237
  O    -2.686789    1.720500   -0.340823
  C    -3.147041   -0.477298    2.606701
  C    -2.350907   -1.326665    3.431534
  C    -1.001156   -1.332042    3.334404
  C    -1.098696    0.628205    1.871624
  C    -0.327711   -0.352317    2.548050
  N    -0.472937    1.736473    1.399730
  C     0.862960    1.780511    1.295451
  C     1.656552    0.747865    1.744216
  C     1.064886   -0.285722    2.450284
  C    -1.781580    1.027587   -1.119050
  O    -1.184291    0.046205   -0.705044
  N    -1.634113    1.555428   -2.328159
  C    -2.450167    2.614070   -2.879228
  C    -0.658922    0.994974   -3.239428
  H    -1.158898    0.612686   -4.129647
  H    -0.132704    0.181476   -2.745932
  H     0.050747    1.768177   -3.532907
  H    -1.809582    3.429497   -3.211860
  H    -3.149607    2.979019   -2.135330
  H    -3.002356    2.229710   -3.738789
  H    -5.027873   -1.257780    3.270919
  H    -5.206810    1.377371   -0.086045
  H    -6.356936    0.055453    1.656764
  H    -2.862070   -2.017861    4.082561
  H    -0.401814   -2.047383    3.873522
  H     1.267334    2.689191    0.876437
  H     2.724027    0.795625    1.609247
  H     1.665799   -1.037570    2.938128
  P    -1.254530    3.317772    1.412016
  O    -2.650313    3.372961    1.843791
  O    -0.824850    3.809596   -0.012444
  O    -0.258700    4.076706    2.388442
  C    -1.432706    4.993797   -0.565213
  C    -0.593801    4.269182    3.766978
  C    -1.135282    6.230058    0.258726
  H    -2.511839    4.833967   -0.630218
  H    -1.003922    5.074442   -1.564617
  H    -1.615487    6.155260    1.233088
  H    -1.520545    7.105881   -0.255435
  H    -0.063834    6.344993    0.402062
  C    -0.416702    2.994485    4.569684
  H    -1.627936    4.618757    3.833550
  H     0.082778    5.053582    4.109938
  H     0.586996    2.598507    4.437147
  H    -1.145873    2.250258    4.252684
  H    -0.575283    3.208670    5.622399

FINAL SINGLE POINT ENERGY       -83.644348871350

DIPOLE MOMENT
-------------
                                X             Y             Z
Total Dipole Moment    :     -1.03300       3.53800       2.15500
                        -----------------------------------------
Magnitude (a.u.)       :      4.26949
Magnitude (Debye)      :     10.85219

                             ****ORCA TERMINATED NORMALLY****
TOTAL RUN TIME: 2 days 8 hours 0 minutes 12 seconds 933 msec
