                         Program Version 6.0.1  -  RELEASE   -
|  1> ! B3LYP/G OPT FREQ 6-311G* CPCM(Water)
|  2>
|  3> * xyz 0 1
|  4> C  -3.29921184439669579191 -0.45162748885488657180 -0.51145933460779513524
|  5> C  -2.88749523341894853701 -1.38196709120748040256 -1.46391864040409136472
|  6> C  -1.55235709768345642168 -1.55795970609206624324 -1.71623257511989035784
|  7> C  -2.37179160551955270364 0.30142074193972134832 0.17554097775812160798
|  8> C  -0.98665610260004321663 0.13844401925796900876 -0.05228766127261796903
|  9> O  -2.77897331626587984488 1.19744443718923654352 1.14604095310235143401
| 10> C  -0.58648830868261137006 -0.81187239673735001055 -1.02235698735559243922
| 11> C  0.79827700271735646531 -1.00182264257843223199 -1.30173919535367610401
| 12> C  1.75010831276037293058 -0.28474711600773638942 -0.66414959656355021522
| 13> C  0.02762660792592086523 0.89132762912318708182 0.64279033991142886517
| 14> C  1.39176371710701629603 0.67748363904995223539 0.31936093454803216041
| 15> N  -0.33181316507982905328 1.77808066557021060561 1.58307050656449188608
| 16> C  0.59341583787015106388 2.47015161720673859236 2.20180133678410694387
| 17> C  1.96192325854424587384 2.34429124315032755277 1.94877079534612285272
| 18> C  2.35868379199655198164 1.43437223047995465741 1.00051329554998313931
| 19> C  -3.73659616537838612516 2.11605010419519468101 0.86418990098766901298
| 20> O  -4.28056906625206856631 2.21271574232097911761 -0.22807212982313418426
| 21> N  -3.99725059884335642835 2.90186861786841543420 1.91200059233324126673
| 22> C  -3.30984090740786562890 2.79301661863110606276 3.18075966283575972682
| 23> C  -5.03565380577187049482 3.90454973609885769292 1.82928958272003372443
| 24> H  -4.60761425203824614982 4.89722384655356535177 1.97164146043297416888
| 25> H  -5.78536565115762613232 3.72040463244509922447 2.59925082304283128209
| 26> H  -5.49924350684552365465 3.84871338940217633251 0.84668743254449219116
| 27> H  -2.36433438850898847150 2.27723135049781921779 3.03779214665444730059
| 28> H  -3.92239128683128690511 2.24571505393759585090 3.89947641569021374863
| 29> H  -3.12537419385915971048 3.79691681296295957537 3.55939247525990243304
| 30> H  -1.22380054817876371409 -2.27318552200003942687 -2.45414476804485381933
| 31> H  -4.34930828395222057736 -0.30457263051519722907 -0.31145257725810138183
| 32> H  -3.62989279386764085444 -1.95767523635429729900 -1.99327083637831870000
| 33> H  1.06431974863961165134 -1.73635287427979290165 -2.04624137862877919503
| 34> H  2.79833402781707807350 -0.42450711308642508079 -0.88217395703278933539
| 35> H  0.22830339954147160775 3.16611008838605467730 2.94554841436224279505
| 36> H  2.67438285563647237808 2.94412282769538169447 2.49132636400693474599
| 37> H  3.40303355198354218203 1.28647478235062240337 0.76663522172690401479
| 38> *
| 39>
| 40>                          ****END OF INPUT****
 Total Charge           Charge          ....    0
 Multiplicity           Mult            ....    1
 Number of Electrons    NEL             ....  140
FINAL SINGLE POINT ENERGY      -878.321284887841
FINAL SINGLE POINT ENERGY      -878.325644710359
FINAL SINGLE POINT ENERGY      -878.326437044145
FINAL SINGLE POINT ENERGY      -878.327439663874
FINAL SINGLE POINT ENERGY      -878.328113408884
FINAL SINGLE POINT ENERGY      -878.328522679097
FINAL SINGLE POINT ENERGY      -878.328988231601
FINAL SINGLE POINT ENERGY      -878.329285334506
FINAL SINGLE POINT ENERGY      -878.329395097057
FINAL SINGLE POINT ENERGY      -878.329441429976
FINAL SINGLE POINT ENERGY      -878.329456595873
                    ***********************HURRAY********************

CARTESIAN COORDINATES (ANGSTROEM)
---------------------------------
  C     -3.356505   -0.794456   -0.384698
  C     -2.885025   -1.717213   -1.328581
  C     -1.542263   -1.747914   -1.634064
  C     -2.491620    0.082099    0.240049
  C     -1.098236    0.088663   -0.041863
  O     -3.059486    0.885685    1.222477
  C     -0.637465   -0.864293   -1.005279
  C      0.757378   -0.936443   -1.336939
  C      1.668393   -0.120789   -0.751321
  C     -0.117050    0.972006    0.579199
  C      1.256824    0.848383    0.218235
  N     -0.519799    1.893314    1.487173
  C      0.381970    2.683826    2.048080
  C      1.755865    2.632352    1.761424
  C      2.188208    1.707295    0.837550
  C     -3.319337    2.199605    0.908208
  O     -3.196854    2.635828   -0.223247
  N     -3.750353    2.890008    1.986332
  C     -3.904812    2.317350    3.319930
  C     -4.220937    4.259103    1.816166
  H     -3.676902    4.927843    2.488743
  H     -5.288723    4.327380    2.047698
  H     -4.057354    4.573223    0.789774
  H     -3.325514    1.404943    3.411054
  H     -4.956883    2.098451    3.532334
  H     -3.547058    3.038297    4.058583
  H     -1.158165   -2.457508   -2.359386
  H     -4.407595   -0.754216   -0.122296
  H     -3.578120   -2.398254   -1.810107
  H      1.068058   -1.670967   -2.072905
  H      2.721471   -0.186850   -1.006244
  H      0.003320    3.406169    2.767404
  H      2.444190    3.307989    2.256057
  H      3.238530    1.626930    0.574841

 Multiplicity           Mult            ....    1
 Number of Electrons    NEL             ....  140
 Basis Dimension        Dim             ....  402

ORBITAL ENERGIES
----------------

  NO   OCC          E(Eh)            E(eV)
   0   2.0000     -19.164925      -521.5041
   1   2.0000     -19.089149      -519.4421
   2   2.0000     -14.345034      -390.3482
   3   2.0000     -14.313643      -389.4940
   4   2.0000     -10.319432      -280.8060
   5   2.0000     -10.247642      -278.8525
   6   2.0000     -10.226697      -278.2826
   7   2.0000     -10.212366      -277.8926
   8   2.0000     -10.201907      -277.6080
   9   2.0000     -10.198651      -277.5194
  10   2.0000     -10.197262      -277.4816
  11   2.0000     -10.194618      -277.4097
  12   2.0000     -10.193856      -277.3889
  13   2.0000     -10.193584      -277.3815
  14   2.0000     -10.183970      -277.1199
  15   2.0000     -10.183799      -277.1153
  16   2.0000     -10.183750      -277.1139
  17   2.0000     -10.183099      -277.0962
  18   2.0000     -10.181480      -277.0522
  19   2.0000     -10.180650      -277.0296
  20   2.0000      -1.114393       -30.3242
  21   2.0000      -1.021621       -27.7997
  22   2.0000      -0.955743       -26.0071
  23   2.0000      -0.944854       -25.7108
  24   2.0000      -0.881214       -23.9790
  25   2.0000      -0.839435       -22.8422
  26   2.0000      -0.808234       -21.9932
  27   2.0000      -0.783722       -21.3262
  28   2.0000      -0.752434       -20.4748
  29   2.0000      -0.745013       -20.2728
  30   2.0000      -0.721651       -19.6371
  31   2.0000      -0.705884       -19.2081
  32   2.0000      -0.656228       -17.8569
  33   2.0000      -0.649169       -17.6648
  34   2.0000      -0.631918       -17.1953
  35   2.0000      -0.619508       -16.8577
  36   2.0000      -0.574743       -15.6396
  37   2.0000      -0.548122       -14.9152
  38   2.0000      -0.536503       -14.5990
  39   2.0000      -0.531099       -14.4519
  40   2.0000      -0.516007       -14.0413
  41   2.0000      -0.495505       -13.4834
  42   2.0000      -0.492145       -13.3919
  43   2.0000      -0.484009       -13.1706
  44   2.0000      -0.479376       -13.0445
  45   2.0000      -0.466467       -12.6932
  46   2.0000      -0.446235       -12.1427
  47   2.0000      -0.444084       -12.0841
  48   2.0000      -0.435697       -11.8559
  49   2.0000      -0.430456       -11.7133
  50   2.0000      -0.418990       -11.4013
  51   2.0000      -0.414028       -11.2663
  52   2.0000      -0.408340       -11.1115
  53   2.0000      -0.407141       -11.0789
  54   2.0000      -0.405326       -11.0295
  55   2.0000      -0.401477       -10.9247
  56   2.0000      -0.386582       -10.5194
  57   2.0000      -0.385259       -10.4834
  58   2.0000      -0.376679       -10.2500
  59   2.0000      -0.364177        -9.9097
  60   2.0000      -0.356721        -9.7069
  61   2.0000      -0.337011        -9.1705
  62   2.0000      -0.317467        -8.6387
  63   2.0000      -0.306580        -8.3425
  64   2.0000      -0.287773        -7.8307
  65   2.0000      -0.281061        -7.6481
  66   2.0000      -0.262259        -7.1364
  67   2.0000      -0.249584        -6.7915
  68   2.0000      -0.248620        -6.7653
  69   2.0000      -0.229585        -6.2473
  70   0.0000      -0.061994        -1.6870
  71   0.0000      -0.053803        -1.4641
  72   0.0000      -0.014917        -0.4059
  73   0.0000       0.012235         0.3329
  74   0.0000       0.041592         1.1318

MULLIKEN ATOMIC CHARGES
-----------------------
   0 C :   -0.213843
   1 C :   -0.220112
   2 C :   -0.221296
   3 C :    0.204752
   4 C :    0.034450
   5 O :   -0.386363
   6 C :    0.001372
   7 C :   -0.225909
   8 C :   -0.230847
   9 C :    0.124059
  10 C :   -0.013180
  11 N :   -0.377275
  12 C :   -0.045401
  13 C :   -0.298668
  14 C :   -0.100367
  15 C :    0.565605
  16 O :   -0.456895
  17 N :   -0.342440
  18 C :   -0.516364
  19 C :   -0.523848
  20 H :    0.235525
  21 H :    0.231550
  22 H :    0.234496
  23 H :    0.241562
  24 H :    0.230725
  25 H :    0.233729
  26 H :    0.228191
  27 H :    0.228007
  28 H :    0.228075
  29 H :    0.230082
  30 H :    0.228733
  31 H :    0.224178
  32 H :    0.230533
  33 H :    0.237183
Sum of atomic charges:    0.0000000

LOEWDIN ATOMIC CHARGES
----------------------
   0 C :   -0.114405
   1 C :   -0.102146
   2 C :   -0.101550
   3 C :   -0.008411
   4 C :   -0.037012
   5 O :    0.048788
   6 C :   -0.029145
   7 C :   -0.093053
   8 C :   -0.098064
   9 C :   -0.032288
  10 C :   -0.048856
  11 N :   -0.016462
  12 C :   -0.099661
  13 C :   -0.128646
  14 C :   -0.060853
  15 C :   -0.112168
  16 O :   -0.193405
  17 N :    0.031226
  18 C :   -0.242296
  19 C :   -0.240280
  20 H :    0.114019
  21 H :    0.112412
  22 H :    0.117174
  23 H :    0.116869
  24 H :    0.110739
  25 H :    0.115598
  26 H :    0.124093
  27 H :    0.124733
  28 H :    0.124541
  29 H :    0.125755
  30 H :    0.125487
  31 H :    0.110718
  32 H :    0.127740
  33 H :    0.128811

  Mayer bond orders larger than 0.100000
B(  0-C ,  1-C ) :   1.3457 B(  0-C ,  3-C ) :   1.5002 B(  0-C , 27-H ) :   0.9209
B(  1-C ,  2-C ) :   1.5087 B(  1-C , 28-H ) :   0.9271 B(  2-C ,  6-C ) :   1.3186
B(  2-C , 26-H ) :   0.9230 B(  3-C ,  4-C ) :   1.2546 B(  3-C ,  5-O ) :   0.9105
B(  4-C ,  6-C ) :   1.3369 B(  4-C ,  9-C ) :   1.1919 B(  5-O , 15-C ) :   1.0173
B(  6-C ,  7-C ) :   1.1995 B(  7-C ,  8-C ) :   1.6577 B(  7-C , 29-H ) :   0.9206
B(  8-C , 10-C ) :   1.1872 B(  8-C , 30-H ) :   0.9238 B(  9-C , 10-C ) :   1.2385
B(  9-C , 11-N ) :   1.4543 B( 10-C , 14-C ) :   1.3096 B( 11-N , 12-C ) :   1.5644
B( 12-C , 13-C ) :   1.3206 B( 12-C , 31-H ) :   0.9276 B( 13-C , 14-C ) :   1.4953
B( 13-C , 32-H ) :   0.9220 B( 14-C , 33-H ) :   0.9253 B( 15-C , 16-O ) :   1.8953
B( 15-C , 17-N ) :   1.2080 B( 17-N , 18-C ) :   0.9496 B( 17-N , 19-C ) :   0.9614
B( 18-C , 23-H ) :   0.9151 B( 18-C , 24-H ) :   0.9179 B( 18-C , 25-H ) :   0.9202
B( 19-C , 20-H ) :   0.9200 B( 19-C , 21-H ) :   0.9197 B( 19-C , 22-H ) :   0.9153

FINAL SINGLE POINT ENERGY      -878.329458581899

DIPOLE MOMENT
-------------

Method             : SCF
Type of density    : Electron Density
Multiplicity       :   1
Irrep              :   0
Energy             :  -878.3294585818985070 Eh
Relativity type    :
Basis              : AO
                                X                 Y                 Z
Electronic contribution:      5.620227453      -6.193173230      -5.619723073
Nuclear contribution   :     -4.737548800       5.948017114       6.648222346
                        -----------------------------------------
Total Dipole Moment    :      0.882678654      -0.245156117       1.028499273
                        -----------------------------------------
Magnitude (a.u.)       :      1.377328531
Magnitude (Debye)      :      3.500890904

VIBRATIONAL FREQUENCIES
-----------------------

Scaling factor for frequencies =  1.000000000  (already applied!)

     0:       0.00 cm**-1
     1:       0.00 cm**-1
     2:       0.00 cm**-1
     3:       0.00 cm**-1
     4:       0.00 cm**-1
     5:       0.00 cm**-1
     6:      30.21 cm**-1
     7:      34.17 cm**-1
     8:      48.15 cm**-1
     9:      62.68 cm**-1
    10:      90.03 cm**-1
    11:      99.09 cm**-1
    12:     113.44 cm**-1
    13:     129.60 cm**-1
    14:     203.03 cm**-1
    15:     216.34 cm**-1
    16:     229.81 cm**-1
    17:     233.46 cm**-1
    18:     244.57 cm**-1
    19:     296.44 cm**-1
    20:     365.35 cm**-1
    21:     376.78 cm**-1
    22:     409.46 cm**-1
    23:     421.01 cm**-1
    24:     463.20 cm**-1
    25:     488.83 cm**-1
    26:     509.69 cm**-1
    27:     519.36 cm**-1
    28:     524.88 cm**-1
    29:     561.35 cm**-1
    30:     582.10 cm**-1
    31:     607.09 cm**-1
    32:     623.20 cm**-1
    33:     658.94 cm**-1
    34:     701.57 cm**-1
    35:     729.83 cm**-1
    36:     735.95 cm**-1
    37:     739.45 cm**-1
    38:     773.19 cm**-1
    39:     800.86 cm**-1
    40:     823.82 cm**-1
    41:     833.42 cm**-1
    42:     853.96 cm**-1
    43:     868.30 cm**-1
    44:     870.61 cm**-1
    45:     922.14 cm**-1
    46:     965.45 cm**-1
    47:     979.53 cm**-1
    48:     987.99 cm**-1
    49:     994.50 cm**-1
    50:    1000.81 cm**-1
    51:    1029.09 cm**-1
    52:    1046.69 cm**-1
    53:    1082.42 cm**-1
    54:    1084.30 cm**-1
    55:    1107.82 cm**-1
    56:    1133.92 cm**-1
    57:    1148.10 cm**-1
    58:    1160.79 cm**-1
    59:    1172.47 cm**-1
    60:    1180.66 cm**-1
    61:    1188.05 cm**-1
    62:    1220.80 cm**-1
    63:    1225.91 cm**-1
    64:    1258.00 cm**-1
    65:    1272.18 cm**-1
    66:    1285.78 cm**-1
    67:    1324.45 cm**-1
    68:    1342.66 cm**-1
    69:    1355.91 cm**-1
    70:    1412.09 cm**-1
    71:    1421.14 cm**-1
    72:    1446.02 cm**-1
    73:    1452.68 cm**-1
    74:    1457.05 cm**-1
    75:    1470.25 cm**-1
    76:    1477.71 cm**-1
    77:    1493.10 cm**-1
    78:    1500.56 cm**-1
    79:    1504.64 cm**-1
    80:    1531.59 cm**-1
    81:    1536.53 cm**-1
    82:    1548.48 cm**-1
    83:    1601.06 cm**-1
    84:    1633.20 cm**-1
    85:    1647.07 cm**-1
    86:    1661.56 cm**-1
    87:    1742.84 cm**-1
    88:    3024.23 cm**-1
    89:    3029.56 cm**-1
    90:    3076.48 cm**-1
    91:    3084.35 cm**-1
    92:    3150.78 cm**-1
    93:    3169.84 cm**-1
    94:    3174.16 cm**-1
    95:    3176.35 cm**-1
    96:    3176.93 cm**-1
    97:    3184.76 cm**-1
    98:    3186.58 cm**-1
    99:    3189.54 cm**-1
   100:    3201.03 cm**-1
   101:    3201.35 cm**-1

IR SPECTRUM
-----------

 Mode   freq       eps      Int      T**2         TX        TY        TZ
       cm**-1   L/(mol*cm) km/mol    a.u.
----------------------------------------------------------------------------
  6:     30.21   0.000735    3.72  0.007597  ( 0.074618  0.032838  0.030839)
  7:     34.17   0.000478    2.42  0.004368  ( 0.049367 -0.032522  0.029542)
  8:     48.15   0.000146    0.74  0.000944  ( 0.008260 -0.024640  0.016383)
  9:     62.68   0.000474    2.39  0.002359  ( 0.040474  0.022535  0.014582)
 10:     90.03   0.000343    1.74  0.001190  (-0.031233 -0.009382 -0.011258)
 11:     99.09   0.001959    9.90  0.006170  (-0.009348  0.058737 -0.051304)
 12:    113.44   0.000418    2.11  0.001151  (-0.025673  0.022068 -0.002120)
 13:    129.60   0.000404    2.04  0.000973  (-0.027423 -0.013951 -0.005108)
 14:    203.03   0.000180    0.91  0.000277  (-0.013417 -0.000995  0.009797)
 15:    216.34   0.000645    3.26  0.000931  (-0.029149 -0.008222 -0.003647)
 16:    229.81   0.000638    3.22  0.000866  (-0.020697  0.004112 -0.020517)
 17:    233.46   0.001180    5.96  0.001577  (-0.008919 -0.027391  0.027333)
 18:    244.57   0.000677    3.42  0.000864  ( 0.001425 -0.015830 -0.024722)
 19:    296.44   0.000160    0.81  0.000168  (-0.000835 -0.007462  0.010583)
 20:    365.35   0.003574   18.06  0.003053  (-0.020849  0.046071  0.022265)
 21:    376.78   0.001075    5.43  0.000890  ( 0.014472 -0.025730 -0.004336)
 22:    409.46   0.000754    3.81  0.000575  ( 0.010795 -0.009603 -0.019126)
 23:    421.01   0.000041    0.21  0.000030  ( 0.002999 -0.003892 -0.002493)
 24:    463.20   0.001882    9.51  0.001268  (-0.016387  0.024123 -0.020437)
 25:    488.83   0.000149    0.76  0.000095  ( 0.003208 -0.004630 -0.007980)
 26:    509.69   0.000039    0.20  0.000024  ( 0.004179  0.002078 -0.001369)
 27:    519.36   0.000983    4.97  0.000591  (-0.002823  0.023687 -0.004670)
 28:    524.88   0.001002    5.07  0.000596  ( 0.022899  0.007992  0.002779)
 29:    561.35   0.001169    5.91  0.000650  ( 0.013315  0.014754  0.015965)
 30:    582.10   0.000259    1.31  0.000139  (-0.007332  0.000773  0.009188)
 31:    607.09   0.001828    9.24  0.000940  (-0.022465  0.002935  0.020648)
 32:    623.20   0.002481   12.54  0.001243  (-0.030291 -0.015435  0.009312)
 33:    658.94   0.001537    7.77  0.000728  ( 0.016356  0.009379  0.019300)
 34:    701.57   0.000590    2.98  0.000262  (-0.012352  0.004528  0.009448)
 35:    729.83   0.001893    9.57  0.000809  ( 0.009207 -0.015798  0.021798)
 36:    735.95   0.013240   66.91  0.005614  (-0.024759 -0.065079  0.027673)
 37:    739.45   0.011420   57.71  0.004820  ( 0.057116 -0.006076  0.038992)
 38:    773.19   0.004578   23.13  0.001848  ( 0.010036 -0.017221  0.038082)
 39:    800.86   0.000224    1.13  0.000087  ( 0.001891  0.008877 -0.002210)
 40:    823.82   0.003546   17.92  0.001343  ( 0.019976 -0.004185  0.030443)
 41:    833.42   0.004485   22.67  0.001679  (-0.024741 -0.002006  0.032609)
 42:    853.96   0.010857   54.87  0.003968  ( 0.007544 -0.039220  0.048707)
 43:    868.30   0.013091   66.16  0.004705  ( 0.020828 -0.057315  0.031403)
 44:    870.61   0.001153    5.83  0.000413  ( 0.006072  0.019403 -0.000251)
 45:    922.14   0.000630    3.19  0.000213  (-0.007063  0.011590  0.005395)
 46:    965.45   0.000114    0.58  0.000037  (-0.000544  0.004370 -0.004187)
 47:    979.53   0.000075    0.38  0.000024  ( 0.000582 -0.002397  0.004227)
 48:    987.99   0.000130    0.65  0.000041  ( 0.000253 -0.002499  0.005884)
 49:    994.50   0.005499   27.79  0.001726  (-0.022824 -0.001668  0.034667)
 50:   1000.81   0.000198    1.00  0.000062  ( 0.000835 -0.005351  0.005706)
 51:   1029.09   0.008681   43.87  0.002633  ( 0.043145 -0.027713 -0.001749)
 52:   1046.69   0.008123   41.05  0.002422  ( 0.024460 -0.042690 -0.001087)
 53:   1082.42   0.003711   18.75  0.001070  ( 0.008304 -0.031595  0.001616)
 54:   1084.30   0.000985    4.98  0.000283  ( 0.000614  0.008433 -0.014559)
 55:   1107.82   0.000606    3.06  0.000171  (-0.012664 -0.002919 -0.001393)
 56:   1133.92   0.000857    4.33  0.000236  ( 0.007317 -0.002285 -0.013311)
 57:   1148.10   0.007644   38.63  0.002078  (-0.007160 -0.040800 -0.019020)
 58:   1160.79   0.187820  949.16  0.050493  (-0.102839  0.170865  0.103548)
 59:   1172.47   0.001992   10.07  0.000530  (-0.003593  0.016950  0.015169)
 60:   1180.66   0.017970   90.81  0.004750  (-0.037244  0.055073  0.018155)
 61:   1188.05   0.002204   11.14  0.000579  ( 0.011693 -0.020816 -0.002966)
 62:   1220.80   0.004214   21.30  0.001077  (-0.008615  0.027528  0.015659)
 63:   1225.91   0.008596   43.44  0.002188  (-0.022288  0.036831  0.018302)
 64:   1258.00   0.027999  141.50  0.006946  (-0.050546  0.061245  0.025293)
 65:   1272.18   0.004583   23.16  0.001124  (-0.012657  0.029523  0.009616)
 66:   1285.78   0.002881   14.56  0.000699  ( 0.004114  0.021874 -0.014274)
 67:   1324.45   0.003058   15.45  0.000720  ( 0.018615 -0.015189 -0.011968)
 68:   1342.66   0.006253   31.60  0.001453  (-0.021587  0.024945  0.019107)
 69:   1355.91   0.002017   10.19  0.000464  ( 0.015599 -0.011041 -0.009951)
 70:   1412.09   0.024147  122.03  0.005336  ( 0.001441  0.060877  0.040352)
 71:   1421.14   0.044376  224.26  0.009744  (-0.056094  0.071388  0.038750)
 72:   1446.02   0.003842   19.41  0.000829  ( 0.004872  0.006225 -0.027688)
 73:   1452.68   0.002641   13.35  0.000567  (-0.004679 -0.020347 -0.011468)
 74:   1457.05   0.006156   31.11  0.001319  ( 0.001327  0.029437  0.021219)
 75:   1470.25   0.006895   34.84  0.001463  ( 0.019850 -0.030144  0.012681)
 76:   1477.71   0.003607   18.23  0.000762  ( 0.020687  0.010000 -0.015293)
 77:   1493.10   0.000424    2.14  0.000089  ( 0.002210 -0.002509 -0.008803)
 78:   1500.56   0.006553   33.12  0.001363  (-0.029472 -0.005046 -0.021652)
 79:   1504.64   0.003220   16.27  0.000668  ( 0.005108  0.022182 -0.012235)
 80:   1531.59   0.001634    8.26  0.000333  ( 0.014293 -0.010002  0.005341)
 81:   1536.53   0.014102   71.26  0.002864  ( 0.014227 -0.051090 -0.007169)
 82:   1548.48   0.010421   52.66  0.002100  (-0.025066  0.033207  0.019211)
 83:   1601.06   0.007829   39.57  0.001526  ( 0.037497 -0.004321 -0.010062)
 84:   1633.20   0.010964   55.41  0.002095  (-0.008433 -0.034368 -0.029029)
 85:   1647.07   0.001198    6.05  0.000227  (-0.007532 -0.009118 -0.009333)
 86:   1661.56   0.004338   21.92  0.000815  ( 0.027495  0.007667 -0.000260)
 87:   1742.84   0.176536  892.14  0.031610  ( 0.038110  0.006823 -0.173524)
 88:   3024.23   0.009247   46.73  0.000954  (-0.010160 -0.020501  0.020753)
 89:   3029.56   0.025028  126.48  0.002578  ( 0.035079 -0.023454 -0.028238)
 90:   3076.48   0.015817   79.93  0.001604  ( 0.031995  0.019004  0.014819)
 91:   3084.35   0.005302   26.80  0.000536  ( 0.013865  0.011947  0.014195)
 92:   3150.78   0.009588   48.45  0.000950  (-0.004259  0.021996  0.021158)
 93:   3169.84   0.000338    1.71  0.000033  ( 0.005358  0.001984  0.000808)
 94:   3174.16   0.001552    7.84  0.000153  (-0.001199 -0.004419  0.011471)
 95:   3176.35   0.001098    5.55  0.000108  (-0.008468  0.003330  0.005011)
 96:   3176.93   0.001771    8.95  0.000174  ( 0.012442 -0.002019 -0.003889)
 97:   3184.76   0.002553   12.90  0.000250  (-0.009404  0.012695  0.000753)
 98:   3186.58   0.005058   25.56  0.000495  ( 0.019044 -0.006413 -0.009565)
 99:   3189.54   0.009368   47.34  0.000917  ( 0.007764 -0.020920 -0.020462)
100:   3201.03   0.010424   52.68  0.001016  ( 0.022368  0.018674  0.012931)
101:   3201.35   0.000885    4.47  0.000086  ( 0.008198  0.004092  0.001513)

--------------------------
THERMOCHEMISTRY AT 298.15K
--------------------------

Temperature         ...   298.15 K
Pressure            ...     1.00 atm
Total Mass          ...   266.30 AMU
Quasi RRHO          ...     True
Cut-Off Frequency   ...     1.00 cm^-1

Throughout the following assumptions are being made:
  (1) The electronic state is orbitally nondegenerate
  (2) There are no thermally accessible electronically excited states
  (3) Hindered rotations indicated by low frequency modes are not
      treated as such but are treated as vibrations and this may
      cause some error
  (4) All equations used are the standard statistical mechanics
      equations for an ideal gas
  (5) All vibrations are strictly harmonic

freq.      30.21  E(vib)   ...       0.55
freq.      34.17  E(vib)   ...       0.54
freq.      48.15  E(vib)   ...       0.53
freq.      62.68  E(vib)   ...       0.51
freq.      90.03  E(vib)   ...       0.47
freq.      99.09  E(vib)   ...       0.46
freq.     113.44  E(vib)   ...       0.45
freq.     129.60  E(vib)   ...       0.43
freq.     203.03  E(vib)   ...       0.35
freq.     216.34  E(vib)   ...       0.34
freq.     229.81  E(vib)   ...       0.32
freq.     233.46  E(vib)   ...       0.32
freq.     244.57  E(vib)   ...       0.31
freq.     296.44  E(vib)   ...       0.27
freq.     365.35  E(vib)   ...       0.22
freq.     376.78  E(vib)   ...       0.21
freq.     409.46  E(vib)   ...       0.19
freq.     421.01  E(vib)   ...       0.18
freq.     463.20  E(vib)   ...       0.16
freq.     488.83  E(vib)   ...       0.15
freq.     509.69  E(vib)   ...       0.14
freq.     519.36  E(vib)   ...       0.13
freq.     524.88  E(vib)   ...       0.13
freq.     561.35  E(vib)   ...       0.11
freq.     582.10  E(vib)   ...       0.11
freq.     607.09  E(vib)   ...       0.10
freq.     623.20  E(vib)   ...       0.09
freq.     658.94  E(vib)   ...       0.08
freq.     701.57  E(vib)   ...       0.07
freq.     729.83  E(vib)   ...       0.06
freq.     735.95  E(vib)   ...       0.06
freq.     739.45  E(vib)   ...       0.06
freq.     773.19  E(vib)   ...       0.05
freq.     800.86  E(vib)   ...       0.05
freq.     823.82  E(vib)   ...       0.05
freq.     833.42  E(vib)   ...       0.04
freq.     853.96  E(vib)   ...       0.04
freq.     868.30  E(vib)   ...       0.04
freq.     870.61  E(vib)   ...       0.04
freq.     922.14  E(vib)   ...       0.03
freq.     965.45  E(vib)   ...       0.03
freq.     979.53  E(vib)   ...       0.03
freq.     987.99  E(vib)   ...       0.02
freq.     994.50  E(vib)   ...       0.02
freq.    1000.81  E(vib)   ...       0.02
freq.    1029.09  E(vib)   ...       0.02
freq.    1046.69  E(vib)   ...       0.02
freq.    1082.42  E(vib)   ...       0.02
freq.    1084.30  E(vib)   ...       0.02
freq.    1107.82  E(vib)   ...       0.02
freq.    1133.92  E(vib)   ...       0.01
freq.    1148.10  E(vib)   ...       0.01
freq.    1160.79  E(vib)   ...       0.01
freq.    1172.47  E(vib)   ...       0.01
freq.    1180.66  E(vib)   ...       0.01
freq.    1188.05  E(vib)   ...       0.01
freq.    1220.80  E(vib)   ...       0.01
freq.    1225.91  E(vib)   ...       0.01
freq.    1258.00  E(vib)   ...       0.01
freq.    1272.18  E(vib)   ...       0.01
freq.    1285.78  E(vib)   ...       0.01
freq.    1324.45  E(vib)   ...       0.01
freq.    1342.66  E(vib)   ...       0.01
freq.    1355.91  E(vib)   ...       0.01
freq.    1412.09  E(vib)   ...       0.00
freq.    1421.14  E(vib)   ...       0.00
freq.    1446.02  E(vib)   ...       0.00
freq.    1452.68  E(vib)   ...       0.00
freq.    1457.05  E(vib)   ...       0.00
freq.    1470.25  E(vib)   ...       0.00
freq.    1477.71  E(vib)   ...       0.00
freq.    1493.10  E(vib)   ...       0.00
freq.    1500.56  E(vib)   ...       0.00
freq.    1504.64  E(vib)   ...       0.00
freq.    1531.59  E(vib)   ...       0.00
freq.    1536.53  E(vib)   ...       0.00
freq.    1548.48  E(vib)   ...       0.00
freq.    1601.06  E(vib)   ...       0.00
freq.    1633.20  E(vib)   ...       0.00
freq.    1647.07  E(vib)   ...       0.00
freq.    1661.56  E(vib)   ...       0.00
freq.    1742.84  E(vib)   ...       0.00
freq.    3024.23  E(vib)   ...       0.00
freq.    3029.56  E(vib)   ...       0.00
freq.    3076.48  E(vib)   ...       0.00
freq.    3084.35  E(vib)   ...       0.00
freq.    3150.78  E(vib)   ...       0.00
freq.    3169.84  E(vib)   ...       0.00
freq.    3174.16  E(vib)   ...       0.00
freq.    3176.35  E(vib)   ...       0.00
freq.    3176.93  E(vib)   ...       0.00
freq.    3184.76  E(vib)   ...       0.00
freq.    3186.58  E(vib)   ...       0.00
freq.    3189.54  E(vib)   ...       0.00
freq.    3201.03  E(vib)   ...       0.00
freq.    3201.35  E(vib)   ...       0.00

------------
INNER ENERGY
------------

The inner energy is: U= E(el) + E(ZPE) + E(vib) + E(rot) + E(trans)
    E(el)   - is the total energy from the electronic structure calculation
              = E(kin-el) + E(nuc-el) + E(el-el) + E(nuc-nuc)
    E(ZPE)  - the the zero temperature vibrational energy from the frequency calculation
    E(vib)  - the the finite temperature correction to E(ZPE) due to population
              of excited vibrational states
    E(rot)  - is the rotational thermal energy
    E(trans)- is the translational thermal energy

Summary of contributions to the inner energy U:
Electronic energy                ...   -878.32945858 Eh
Zero point energy                ...      0.26861220 Eh     168.56 kcal/mol
Thermal vibrational correction   ...      0.01406389 Eh       8.83 kcal/mol
Thermal rotational correction    ...      0.00141627 Eh       0.89 kcal/mol
Thermal translational correction ...      0.00141627 Eh       0.89 kcal/mol
-----------------------------------------------------------------------
Total thermal energy                   -878.04394995 Eh

Summary of corrections to the electronic energy:
(perhaps to be used in another calculation)
Total thermal correction                  0.01689644 Eh      10.60 kcal/mol
Non-thermal (ZPE) correction              0.26861220 Eh     168.56 kcal/mol
-----------------------------------------------------------------------
Total correction                          0.28550863 Eh     179.16 kcal/mol

--------
ENTHALPY
--------

The enthalpy is H = U + kB*T
                kB is Boltzmann's constant
Total thermal energy              ...   -878.04394995 Eh
Thermal Enthalpy correction       ...      0.00094421 Eh       0.59 kcal/mol
-----------------------------------------------------------------------
Total Enthalpy                    ...   -878.04300574 Eh

Note: Only C1 symmetry has been detected, increase convergence thresholds
      if your molecule has a higher symmetry. Symmetry factor of 1.0 is

Rotational constants in cm-1:     0.016148     0.010990     0.007130

                             ****ORCA TERMINATED NORMALLY****
TOTAL RUN TIME: 0 days 2 hours 8 minutes 8 seconds 468 msec
