                         Program Version 5.0.4 -  RELEASE  -
|  1> ! B3LYP/G FREQ Def2-TZVP(-f) Def2-TZVP/C Def2/J RIJCOSX TightSCF CPCM(Water) AllPop SOSCF
|  2> %maxcore 3000
|  3>
|  4> * xyz 0 1
|  5>   C   -3.63956775583183     -0.54618188582515      0.13739126920685
|  6>   C   -3.64926397839464     -1.93306476913420      0.09291471448676
|  7>   C   -2.47297539031380     -2.67519804055184      0.04404517714981
|  8>   C   -1.24212575410320     -2.01155529675448      0.03833271758851
|  9>   C   -1.20894891681101     -0.58711641312248      0.08288256751980
| 10>   C   -2.43053308453654      0.19075070046080      0.13464276230973
| 11>   O   -2.40814321285587      1.48209970292208      0.17622719709657
| 12>   C   0.06130085891835      0.04680408144192      0.07475504530541
| 13>   C   1.27766593111321     -0.68254071261229      0.02507628906624
| 14>   C   1.20239993215207     -2.11101414935802     -0.01879399758284
| 15>   C   -0.00147203288381     -2.73536492194830     -0.01199275806921
| 16>   N   0.12095456236727      1.40523436851056      0.11653389934818
| 17>   C   1.26568697085965      2.09171214932852      0.11369628001277
| 18>   C   2.47614373704356      1.42419172917417      0.06657779563103
| 19>   C   2.47676402870315      0.03578302915836      0.02235100443542
| 20>   H   -0.85542544192966      1.82299917815447      0.15176859885097
| 21>   H   -4.56900179768702      0.00929966672137      0.17575387618930
| 22>   H   -4.60167309018968     -2.45118175726642      0.09690503515551
| 23>   H   -2.50006077688247     -3.75667770835636      0.01021009405954
| 24>   H   -0.04983758558140     -3.81739282501124     -0.04546255526550
| 25>   H   2.12480985229030     -2.67662135396231     -0.05700428170378
| 26>   H   3.41469421598316     -0.50479475355567     -0.01454401314123
| 27>   H   1.18309314731684      3.16849540032808      0.15000843117774
| 28>   H   3.39817558125339      1.98666458125844      0.06500485117243
| 29> *
| 30>
| 31>
| 32>
| 33>                          ****END OF INPUT****

CARTESIAN COORDINATES (ANGSTROEM)
---------------------------------
  C     -3.639568   -0.546182    0.137391
  C     -3.649264   -1.933065    0.092915
  C     -2.472975   -2.675198    0.044045
  C     -1.242126   -2.011555    0.038333
  C     -1.208949   -0.587116    0.082883
  C     -2.430533    0.190751    0.134643
  O     -2.408143    1.482100    0.176227
  C      0.061301    0.046804    0.074755
  C      1.277666   -0.682541    0.025076
  C      1.202400   -2.111014   -0.018794
  C     -0.001472   -2.735365   -0.011993
  N      0.120955    1.405234    0.116534
  C      1.265687    2.091712    0.113696
  C      2.476144    1.424192    0.066578
  C      2.476764    0.035783    0.022351
  H     -0.855425    1.822999    0.151769
  H     -4.569002    0.009300    0.175754
  H     -4.601673   -2.451182    0.096905
  H     -2.500061   -3.756678    0.010210
  H     -0.049838   -3.817393   -0.045463
  H      2.124810   -2.676621   -0.057004
  H      3.414694   -0.504795   -0.014544
  H      1.183093    3.168495    0.150008
  H      3.398176    1.986665    0.065005

 Total Charge           Charge          ....    0
 Multiplicity           Mult            ....    1
 Number of Electrons    NEL             ....  102
 Basis Dimension        Dim             ....  414

ORBITAL ENERGIES
----------------

  NO   OCC          E(Eh)            E(eV)
   0   2.0000     -19.080754      -519.2137
   1   2.0000     -14.389284      -391.5523
   2   2.0000     -10.246014      -278.8082
   3   2.0000     -10.243672      -278.7445
   4   2.0000     -10.230345      -278.3818
   5   2.0000     -10.210634      -277.8455
   6   2.0000     -10.209106      -277.8039
   7   2.0000     -10.198113      -277.5048
   8   2.0000     -10.192974      -277.3649
   9   2.0000     -10.187964      -277.2286
  10   2.0000     -10.187009      -277.2026
  11   2.0000     -10.184005      -277.1209
  12   2.0000     -10.176898      -276.9275
  13   2.0000     -10.163497      -276.5628
  14   2.0000     -10.159691      -276.4593
  15   2.0000      -1.017001       -27.6740
  16   2.0000      -0.986951       -26.8563
  17   2.0000      -0.879216       -23.9247
  18   2.0000      -0.843499       -22.9528
  19   2.0000      -0.819809       -22.3081
  20   2.0000      -0.782761       -21.3000
  21   2.0000      -0.750909       -20.4333
  22   2.0000      -0.721048       -19.6207
  23   2.0000      -0.671026       -18.2596
  24   2.0000      -0.662530       -18.0284
  25   2.0000      -0.640878       -17.4392
  26   2.0000      -0.601398       -16.3649
  27   2.0000      -0.567208       -15.4345
  28   2.0000      -0.547445       -14.8967
  29   2.0000      -0.527816       -14.3626
  30   2.0000      -0.513774       -13.9805
  31   2.0000      -0.488940       -13.3047
  32   2.0000      -0.483284       -13.1508
  33   2.0000      -0.466342       -12.6898
  34   2.0000      -0.458042       -12.4640
  35   2.0000      -0.444928       -12.1071
  36   2.0000      -0.434600       -11.8261
  37   2.0000      -0.422768       -11.5041
  38   2.0000      -0.407897       -11.0994
  39   2.0000      -0.398750       -10.8505
  40   2.0000      -0.392691       -10.6857
  41   2.0000      -0.380632       -10.3575
  42   2.0000      -0.366066        -9.9612
  43   2.0000      -0.357474        -9.7274
  44   2.0000      -0.355745        -9.6803
  45   2.0000      -0.328877        -8.9492
  46   2.0000      -0.316992        -8.6258
  47   2.0000      -0.272891        -7.4257
  48   2.0000      -0.250830        -6.8254
  49   2.0000      -0.250528        -6.8172
  50   2.0000      -0.197466        -5.3733
  51   0.0000      -0.082681        -2.2499
  52   0.0000      -0.051623        -1.4047
  53   0.0000      -0.018845        -0.5128
  54   0.0000       0.020299         0.5524
  55   0.0000       0.052680         1.4335

MULLIKEN ATOMIC CHARGES
-----------------------
   0 C :   -0.246625
   1 C :   -0.054047
   2 C :   -0.278133
   3 C :    0.292707
   4 C :    0.048606
   5 C :    0.298628
   6 O :   -0.728484
   7 C :    0.075370
   8 C :    0.290016
   9 C :   -0.248822
  10 C :   -0.249375
  11 N :   -0.248399
  12 C :    0.107551
  13 C :   -0.054506
  14 C :   -0.176549
  15 H :    0.236624
  16 H :    0.073129
  17 H :    0.104133
  18 H :    0.103313
  19 H :    0.108912
  20 H :    0.108504
  21 H :    0.135561
  22 H :    0.164185
  23 H :    0.137702
Sum of atomic charges:    0.0000000

LOEWDIN ATOMIC CHARGES
----------------------
   0 C :   -0.145116
   1 C :   -0.134589
   2 C :   -0.144640
   3 C :   -0.096477
   4 C :   -0.057296
   5 C :   -0.239278
   6 O :   -0.213638
   7 C :   -0.035571
   8 C :   -0.086688
   9 C :   -0.092918
  10 C :   -0.076607
  11 N :    0.192393
  12 C :   -0.077177
  13 C :   -0.120295
  14 C :   -0.035816
  15 H :    0.199183
  16 H :    0.132119
  17 H :    0.138980
  18 H :    0.137759
  19 H :    0.147406
  20 H :    0.147849
  21 H :    0.155366
  22 H :    0.153193
  23 H :    0.151856

  Mayer bond orders larger than 0.100000
B(  0-C ,  1-C ) :   1.4319 B(  0-C ,  5-C ) :   1.3995 B(  0-C , 16-H ) :   1.0061
B(  1-C ,  2-C ) :   1.3393 B(  1-C , 17-H ) :   0.9887 B(  2-C ,  3-C ) :   1.3220
B(  2-C , 18-H ) :   0.9933 B(  3-C ,  4-C ) :   1.2814 B(  3-C , 10-C ) :   1.1221
B(  4-C ,  5-C ) :   1.0186 B(  4-C ,  7-C ) :   1.0986 B(  5-C ,  6-O ) :   1.4588
B(  6-O , 15-H ) :   0.2328 B(  7-C ,  8-C ) :   1.3206 B(  7-C , 11-N ) :   1.2820
B(  8-C ,  9-C ) :   1.1218 B(  8-C , 14-C ) :   1.3445 B(  9-C , 10-C ) :   1.5339
B(  9-C , 20-H ) :   1.0175 B( 10-C , 19-H ) :   1.0108 B( 11-N , 12-C ) :   1.3194
B( 11-N , 15-H ) :   0.7384 B( 12-C , 13-C ) :   1.4153 B( 12-C , 22-H ) :   0.9480
B( 13-C , 14-C ) :   1.3904 B( 13-C , 23-H ) :   0.9647 B( 14-C , 21-H ) :   0.9619

FINAL SINGLE POINT ENERGY      -631.031847840380

DIPOLE MOMENT
-------------
                                X             Y             Z
Electronic contribution:      1.12684       2.21559       0.04421
Nuclear contribution   :      2.43038      -2.47139      -0.13090
                        -----------------------------------------
Total Dipole Moment    :      3.55722      -0.25580      -0.08669
                        -----------------------------------------
Magnitude (a.u.)       :      3.56746
Magnitude (Debye)      :      9.06776

VIBRATIONAL FREQUENCIES
-----------------------

Scaling factor for frequencies =  1.000000000  (already applied!)

   0:         0.00 cm**-1
   1:         0.00 cm**-1
   2:         0.00 cm**-1
   3:         0.00 cm**-1
   4:         0.00 cm**-1
   5:         0.00 cm**-1
   6:        88.71 cm**-1
   7:       132.85 cm**-1
   8:       203.01 cm**-1
   9:       228.90 cm**-1
  10:       233.84 cm**-1
  11:       286.10 cm**-1
  12:       395.64 cm**-1
  13:       414.48 cm**-1
  14:       416.40 cm**-1
  15:       490.37 cm**-1
  16:       503.71 cm**-1
  17:       523.51 cm**-1
  18:       529.30 cm**-1
  19:       560.30 cm**-1
  20:       575.96 cm**-1
  21:       580.74 cm**-1
  22:       663.09 cm**-1
  23:       680.79 cm**-1
  24:       727.14 cm**-1
  25:       732.06 cm**-1
  26:       766.53 cm**-1
  27:       792.25 cm**-1
  28:       822.31 cm**-1
  29:       846.96 cm**-1
  30:       854.48 cm**-1
  31:       873.44 cm**-1
  32:       877.24 cm**-1
  33:       952.49 cm**-1
  34:       970.67 cm**-1
  35:       987.06 cm**-1
  36:      1000.88 cm**-1
  37:      1014.07 cm**-1
  38:      1046.44 cm**-1
  39:      1060.07 cm**-1
  40:      1078.03 cm**-1
  41:      1087.32 cm**-1
  42:      1135.36 cm**-1
  43:      1165.06 cm**-1
  44:      1188.83 cm**-1
  45:      1202.77 cm**-1
  46:      1231.78 cm**-1
  47:      1252.04 cm**-1
  48:      1290.85 cm**-1
  49:      1294.71 cm**-1
  50:      1353.75 cm**-1
  51:      1365.79 cm**-1
  52:      1401.60 cm**-1
  53:      1437.73 cm**-1
  54:      1454.92 cm**-1
  55:      1458.12 cm**-1
  56:      1497.82 cm**-1
  57:      1538.18 cm**-1
  58:      1582.69 cm**-1
  59:      1591.69 cm**-1
  60:      1611.63 cm**-1
  61:      1642.74 cm**-1
  62:      1663.35 cm**-1
  63:      2726.44 cm**-1
  64:      3160.97 cm**-1
  65:      3174.44 cm**-1
  66:      3178.22 cm**-1
  67:      3188.03 cm**-1
  68:      3189.47 cm**-1
  69:      3193.53 cm**-1
  70:      3218.69 cm**-1
  71:      3230.31 cm**-1

IR SPECTRUM
-----------

 Mode   freq       eps      Int      T**2         TX        TY        TZ
       cm**-1   L/(mol*cm) km/mol    a.u.
----------------------------------------------------------------------------
  6:     88.71   0.001528    7.72  0.005377  (-0.001057  0.002687 -0.073268)
  7:    132.85   0.000430    2.17  0.001010  (-0.000655  0.000791 -0.031761)
  8:    203.01   0.000075    0.38  0.000115  (-0.000363 -0.000575  0.010720)
  9:    228.90   0.001988   10.05  0.002710  (-0.000260 -0.001830  0.052029)
 10:    233.84   0.012272   62.02  0.016378  (-0.124558 -0.029350  0.001190)
 11:    286.10   0.000056    0.28  0.000061  (-0.000129 -0.000377  0.007792)
 12:    395.64   0.003147   15.91  0.002483  (-0.009469  0.048886  0.001776)
 13:    414.48   0.000458    2.32  0.000345  ( 0.001650  0.001889 -0.018405)
 14:    416.40   0.003945   19.93  0.002956  (-0.046424 -0.028296 -0.000693)
 15:    490.37   0.000060    0.30  0.000038  ( 0.000195  0.000390 -0.006173)
 16:    503.71   0.000574    2.90  0.000355  (-0.004761 -0.018232 -0.000622)
 17:    523.51   0.002274   11.49  0.001356  ( 0.000877 -0.001214  0.036788)
 18:    529.30   0.000774    3.91  0.000457  (-0.013318 -0.016708 -0.000041)
 19:    560.30   0.003082   15.58  0.001717  ( 0.040527 -0.008531 -0.001249)
 20:    575.96   0.000839    4.24  0.000455  (-0.011590 -0.017892 -0.000454)
 21:    580.74   0.000522    2.64  0.000281  ( 0.000177  0.000866 -0.016732)
 22:    663.09   0.000578    2.92  0.000272  ( 0.000152 -0.000301  0.016493)
 23:    680.79   0.002452   12.39  0.001124  (-0.019894 -0.026982 -0.000322)
 24:    727.14   0.001052    5.32  0.000452  ( 0.019964 -0.007275  0.000331)
 25:    732.06   0.020401  103.10  0.008697  ( 0.002456 -0.002713  0.093183)
 26:    766.53   0.003391   17.14  0.001381  ( 0.000752 -0.001102  0.037132)
 27:    792.25   0.002486   12.56  0.000979  (-0.000747  0.000896 -0.031270)
 28:    822.31   0.002678   13.53  0.001016  (-0.023721  0.021246  0.001522)
 29:    846.96   0.000633    3.20  0.000233  (-0.000490  0.000298 -0.015266)
 30:    854.48   0.027103  136.97  0.009898  ( 0.002272 -0.003279  0.099410)
 31:    873.44   0.005413   27.36  0.001934  ( 0.035404  0.026088  0.000250)
 32:    877.24   0.000268    1.36  0.000095  (-0.000106  0.000606 -0.009751)
 33:    952.49   0.000500    2.53  0.000164  (-0.000030  0.000056 -0.012801)
 34:    970.67   0.000001    0.01  0.000000  ( 0.000183  0.000215  0.000512)
 35:    987.06   0.000422    2.13  0.000133  ( 0.000236 -0.000022  0.011544)
 36:   1000.88   0.001186    6.00  0.000370  (-0.001066  0.000510 -0.019196)
 37:   1014.07   0.002525   12.76  0.000777  (-0.018590 -0.020771 -0.000202)
 38:   1046.44   0.020849  105.36  0.006218  ( 0.022469  0.075542  0.002484)
 39:   1060.07   0.012447   62.90  0.003664  ( 0.001065 -0.001815  0.060496)
 40:   1078.03   0.002401   12.13  0.000695  (-0.024014 -0.010875  0.000365)
 41:   1087.32   0.000152    0.77  0.000044  (-0.005382 -0.003814  0.000013)
 42:   1135.36   0.005418   27.38  0.001489  ( 0.032720 -0.020418 -0.001323)
 43:   1165.06   0.017945   90.69  0.004807  (-0.068435  0.010949  0.001836)
 44:   1188.83   0.009501   48.01  0.002494  ( 0.004660 -0.049693 -0.001675)
 45:   1202.77   0.010533   53.23  0.002733  (-0.014320 -0.050261 -0.001225)
 46:   1231.78   0.005717   28.89  0.001448  ( 0.036743 -0.009847 -0.001141)
 47:   1252.04   0.010057   50.83  0.002507  ( 0.006866  0.049574  0.001439)
 48:   1290.85   0.020378  102.98  0.004926  ( 0.016711 -0.068121 -0.002559)
 49:   1294.71   0.039156  197.88  0.009438  (-0.094947 -0.020518  0.001403)
 50:   1353.75   0.035611  179.96  0.008209  ( 0.080808  0.040973 -0.000441)
 51:   1365.79   0.001098    5.55  0.000251  ( 0.015788 -0.001283 -0.000293)
 52:   1401.60   0.005924   29.94  0.001319  ( 0.028837 -0.022040 -0.001279)
 53:   1437.73   0.038238  193.24  0.008300  (-0.086893  0.027222  0.002855)
 54:   1454.92   0.005607   28.33  0.001203  (-0.032836  0.011102  0.001078)
 55:   1458.12   0.074686  377.43  0.015984  ( 0.007100  0.126168  0.003914)
 56:   1497.82   0.027010  136.50  0.005627  (-0.073565 -0.014633  0.001182)
 57:   1538.18   0.004426   22.37  0.000898  (-0.020792 -0.021575 -0.000274)
 58:   1582.69   0.092833  469.14  0.018304  ( 0.122997  0.056348 -0.000978)
 59:   1591.69   0.025328  128.00  0.004966  ( 0.034520  0.061421  0.001257)
 60:   1611.63   0.028599  144.53  0.005538  ( 0.010822 -0.073580 -0.002546)
 61:   1642.74   0.007633   38.57  0.001450  (-0.024067  0.029473  0.001466)
 62:   1663.35   0.045327  229.07  0.008504  (-0.091833 -0.008217  0.001766)
 63:   2726.44   0.166808  842.98  0.019093  (-0.130481  0.045257  0.004356)
 64:   3160.97   0.003091   15.62  0.000305  (-0.010748 -0.013768 -0.000216)
 65:   3174.44   0.000326    1.65  0.000032  (-0.000167  0.005657  0.000184)
 66:   3178.22   0.007052   35.64  0.000692  (-0.022871  0.012982  0.000895)
 67:   3188.03   0.000320    1.62  0.000031  (-0.004594  0.003184  0.000213)
 68:   3189.47   0.004628   23.39  0.000453  (-0.016990 -0.012813 -0.000020)
 69:   3193.53   0.003274   16.55  0.000320  (-0.004907  0.017188  0.000663)
 70:   3218.69   0.000211    1.06  0.000020  ( 0.001349  0.004312  0.000107)
 71:   3230.31   0.000010    0.05  0.000001  ( 0.000223  0.000938  0.000046)

--------------------------
THERMOCHEMISTRY AT 298.15K
--------------------------

Temperature         ... 298.15 K
Pressure            ... 1.00 atm
Total Mass          ... 195.22 AMU

Throughout the following assumptions are being made:
  (1) The electronic state is orbitally nondegenerate
  (2) There are no thermally accessible electronically excited states
  (3) Hindered rotations indicated by low frequency modes are not
      treated as such but are treated as vibrations and this may
      cause some error
  (4) All equations used are the standard statistical mechanics
      equations for an ideal gas
  (5) All vibrations are strictly harmonic

freq.      88.71  E(vib)   ...       0.47
freq.     132.85  E(vib)   ...       0.42
freq.     203.01  E(vib)   ...       0.35
freq.     228.90  E(vib)   ...       0.32
freq.     233.84  E(vib)   ...       0.32
freq.     286.10  E(vib)   ...       0.27
freq.     395.64  E(vib)   ...       0.20
freq.     414.48  E(vib)   ...       0.19
freq.     416.40  E(vib)   ...       0.18
freq.     490.37  E(vib)   ...       0.15
freq.     503.71  E(vib)   ...       0.14
freq.     523.51  E(vib)   ...       0.13
freq.     529.30  E(vib)   ...       0.13
freq.     560.30  E(vib)   ...       0.11
freq.     575.96  E(vib)   ...       0.11
freq.     580.74  E(vib)   ...       0.11
freq.     663.09  E(vib)   ...       0.08
freq.     680.79  E(vib)   ...       0.08
freq.     727.14  E(vib)   ...       0.06
freq.     732.06  E(vib)   ...       0.06
freq.     766.53  E(vib)   ...       0.06
freq.     792.25  E(vib)   ...       0.05
freq.     822.31  E(vib)   ...       0.05
freq.     846.96  E(vib)   ...       0.04
freq.     854.48  E(vib)   ...       0.04
freq.     873.44  E(vib)   ...       0.04
freq.     877.24  E(vib)   ...       0.04
freq.     952.49  E(vib)   ...       0.03
freq.     970.67  E(vib)   ...       0.03
freq.     987.06  E(vib)   ...       0.02
freq.    1000.88  E(vib)   ...       0.02
freq.    1014.07  E(vib)   ...       0.02
freq.    1046.44  E(vib)   ...       0.02
freq.    1060.07  E(vib)   ...       0.02
freq.    1078.03  E(vib)   ...       0.02
freq.    1087.32  E(vib)   ...       0.02
freq.    1135.36  E(vib)   ...       0.01
freq.    1165.06  E(vib)   ...       0.01
freq.    1188.83  E(vib)   ...       0.01
freq.    1202.77  E(vib)   ...       0.01
freq.    1231.78  E(vib)   ...       0.01
freq.    1252.04  E(vib)   ...       0.01
freq.    1290.85  E(vib)   ...       0.01
freq.    1294.71  E(vib)   ...       0.01
freq.    1353.75  E(vib)   ...       0.01
freq.    1365.79  E(vib)   ...       0.01
freq.    1401.60  E(vib)   ...       0.00
freq.    1437.73  E(vib)   ...       0.00
freq.    1454.92  E(vib)   ...       0.00
freq.    1458.12  E(vib)   ...       0.00
freq.    1497.82  E(vib)   ...       0.00
freq.    1538.18  E(vib)   ...       0.00
freq.    1582.69  E(vib)   ...       0.00
freq.    1591.69  E(vib)   ...       0.00
freq.    1611.63  E(vib)   ...       0.00
freq.    1642.74  E(vib)   ...       0.00
freq.    1663.35  E(vib)   ...       0.00
freq.    2726.44  E(vib)   ...       0.00
freq.    3160.97  E(vib)   ...       0.00
freq.    3174.44  E(vib)   ...       0.00
freq.    3178.22  E(vib)   ...       0.00
freq.    3188.03  E(vib)   ...       0.00
freq.    3189.47  E(vib)   ...       0.00
freq.    3193.53  E(vib)   ...       0.00
freq.    3218.69  E(vib)   ...       0.00
freq.    3230.31  E(vib)   ...       0.00

------------
INNER ENERGY
------------

The inner energy is: U= E(el) + E(ZPE) + E(vib) + E(rot) + E(trans)
    E(el)   - is the total energy from the electronic structure calculation
              = E(kin-el) + E(nuc-el) + E(el-el) + E(nuc-nuc)
    E(ZPE)  - the the zero temperature vibrational energy from the frequency calculation
    E(vib)  - the the finite temperature correction to E(ZPE) due to population
              of excited vibrational states
    E(rot)  - is the rotational thermal energy
    E(trans)- is the translational thermal energy

Summary of contributions to the inner energy U:
Electronic energy                ...   -631.03184784 Eh
Zero point energy                ...      0.18594092 Eh     116.68 kcal/mol
Thermal vibrational correction   ...      0.00718929 Eh       4.51 kcal/mol
Thermal rotational correction    ...      0.00141627 Eh       0.89 kcal/mol
Thermal translational correction ...      0.00141627 Eh       0.89 kcal/mol
-----------------------------------------------------------------------
Total thermal energy                   -630.83588509 Eh

Summary of corrections to the electronic energy:
(perhaps to be used in another calculation)
Total thermal correction                  0.01002184 Eh       6.29 kcal/mol
Non-thermal (ZPE) correction              0.18594092 Eh     116.68 kcal/mol
-----------------------------------------------------------------------
Total correction                          0.19596275 Eh     122.97 kcal/mol

--------
ENTHALPY
--------

The enthalpy is H = U + kB*T
                kB is Boltzmann's constant
Total free energy                 ...   -630.83588509 Eh
Thermal Enthalpy correction       ...      0.00094421 Eh       0.59 kcal/mol
-----------------------------------------------------------------------
Total Enthalpy                    ...   -630.83494088 Eh

Note: Only C1 symmetry has been detected, increase convergence thresholds
      if your molecule has a higher symmetry. Symmetry factor of 1.0 is
      used for the rotational entropy correction.

Note: Rotational entropy computed according to Herzberg
Infrared and Raman Spectra, Chapter V,1, Van Nostrand Reinhold, 1945
Point Group:  C1, Symmetry Number:   1
Rotational constants in cm-1:     0.039794     0.018816     0.012775

Vibrational entropy computed according to the QRRHO of S. Grimme
Chem.Eur.J. 2012 18 9955

-------
ENTROPY
-------

The entropy contributions are T*S = T*(S(el)+S(vib)+S(rot)+S(trans))
     S(el)   - electronic entropy
     S(vib)  - vibrational entropy
     S(rot)  - rotational entropy
     S(trans)- translational entropy
The entropies will be listed as multiplied by the temperature to get
units of energy

Electronic entropy                ...      0.00000000 Eh      0.00 kcal/mol
Vibrational entropy               ...      0.01141814 Eh      7.16 kcal/mol
Rotational entropy                ...      0.01496691 Eh      9.39 kcal/mol
Translational entropy             ...      0.01981867 Eh     12.44 kcal/mol
-----------------------------------------------------------------------
Final entropy term                ...      0.04620372 Eh     28.99 kcal/mol

In case the symmetry of your molecule has not been determined correctly

                             ****ORCA TERMINATED NORMALLY****
TOTAL RUN TIME: 0 days 1 hours 24 minutes 20 seconds 991 msec
