                         Program Version 6.0.1  -  RELEASE   -
|  1> ! CAM-B3LYP VERYTIGHTOPT FREQ Def2-TZVP(-f) Def2-TZVP/C Def2/J RIJCOSX TightSCF CPCM(Water) AllPop SOSCF
|  2> %pal nprocs 128 end
|  3>
|  4> * xyz 0 1
|  5>   C          -3.34673808040941     -0.78677132721976     -0.32404116597531
|  6>   C          -2.89662896391278     -1.71128159077891     -1.27143214911193
|  7>   C          -1.56346144415333     -1.74445166902682     -1.60197345082992
|  8>   C          -2.47082837687529      0.09169704384375      0.27457096101722
|  9>   C          -1.08607342375931      0.09621955520191     -0.03232671933869
| 10>   O          -3.01753331122978      0.89719074487669      1.26876612317815
| 11>   C          -0.64789305646612     -0.86076091472977     -0.99738453096799
| 12>   C           0.73605020953817     -0.93987366152830     -1.35736369882479
| 13>   C           1.65916708250390     -0.12587865031823     -0.79720695573077
| 14>   C          -0.09092063789578      0.98019887915765      0.56004552068688
| 15>   C           1.27106669455049      0.84917280609934      0.17112121405269
| 16>   N          -0.46719160765020      1.91244543904751      1.46442709178227
| 17>   C           0.44869912029120      2.70166895651181      1.99764477101664
| 18>   C           1.81235505377979      2.63929313357752      1.68280111447225
| 19>   C           2.21807194075133      1.70590392881037      0.76069102491168
| 20>   C          -3.33269051189299      2.19100807188900      0.94243157771232
| 21>   O          -3.24308743066879      2.61771785700118     -0.19902969788003
| 22>   N          -3.76375901457772      2.88585712175861      2.01233676322835
| 23>   C          -3.90323304373896      2.32286857976469      3.35066957263160
| 24>   C          -4.28313526580610      4.23458819563255      1.83012998537635
| 25>   H          -5.36008994123276      4.25716826148200      2.01833535594631
| 26>   H          -4.09039203097898      4.56553684279284      0.81549106543041
| 27>   H          -3.79455771950924      4.91294301503646      2.53187907178411
| 28>   H          -3.27817492033880      1.44491913981881      3.46365306681952
| 29>   H          -4.94361291481539      2.05308894019435      3.55404948402173
| 30>   H          -3.59328939637531      3.07372668201741      4.07848340967325
| 31>   H          -1.19345006266831     -2.45586760129821     -2.32950922385201
| 32>   H          -4.39015322226097     -0.74649799069856     -0.04059677163635
| 33>   H          -3.59818513222498     -2.39321663424608     -1.73397167449844
| 34>   H           1.02642261496276     -1.67920339667771     -2.09354833302536
| 35>   H           2.70472089937995     -0.19557668617344     -1.07180883831884
| 36>   H           0.09362457867243      3.43339523188854      2.71669681734327
| 37>   H           2.51359088484531      3.31402930369065      2.15511727183148
| 38>   H           3.25946042545769      1.61658238532610      0.47523194139294
| 39> *
| 40>
| 41>                          ****END OF INPUT****
 Total Charge           Charge          ....    0
 Multiplicity           Mult            ....    1
 Number of Electrons    NEL             ....  140
FINAL SINGLE POINT ENERGY      -877.994336212357
FINAL SINGLE POINT ENERGY      -877.995222662835
FINAL SINGLE POINT ENERGY      -877.995213649064
FINAL SINGLE POINT ENERGY      -877.995289092962
FINAL SINGLE POINT ENERGY      -877.995292102434
FINAL SINGLE POINT ENERGY      -877.995296299364
FINAL SINGLE POINT ENERGY      -877.995297059893
FINAL SINGLE POINT ENERGY      -877.995297655052
FINAL SINGLE POINT ENERGY      -877.995297983144
FINAL SINGLE POINT ENERGY      -877.995298363259
FINAL SINGLE POINT ENERGY      -877.995299141616
FINAL SINGLE POINT ENERGY      -877.995299183024
FINAL SINGLE POINT ENERGY      -877.995299174241
FINAL SINGLE POINT ENERGY      -877.995299148066
FINAL SINGLE POINT ENERGY      -877.995299163810
FINAL SINGLE POINT ENERGY      -877.995299137574
FINAL SINGLE POINT ENERGY      -877.995299198780
FINAL SINGLE POINT ENERGY      -877.995299203480
FINAL SINGLE POINT ENERGY      -877.995299193976
                    ***********************HURRAY********************

CARTESIAN COORDINATES (ANGSTROEM)
---------------------------------
  C     -3.350175   -0.802140   -0.328034
  C     -2.891523   -1.719743   -1.272269
  C     -1.563314   -1.742349   -1.597350
  C     -2.485276    0.075912    0.269653
  C     -1.105607    0.088702   -0.033482
  O     -3.034394    0.879058    1.256283
  C     -0.660551   -0.854699   -0.990435
  C      0.725067   -0.921618   -1.347097
  C      1.632039   -0.104492   -0.786478
  C     -0.122544    0.979756    0.563505
  C      1.230248    0.865071    0.182019
  N     -0.512102    1.901245    1.465431
  C      0.386580    2.696584    2.001452
  C      1.747242    2.650513    1.691105
  C      2.163688    1.727435    0.772773
  C     -3.307588    2.173022    0.938469
  O     -3.203851    2.598077   -0.197965
  N     -3.723568    2.873822    2.002021
  C     -3.861154    2.316762    3.335669
  C     -4.205821    4.229444    1.823317
  H     -5.273894    4.284341    2.044951
  H     -4.036768    4.543905    0.799992
  H     -3.676495    4.901102    2.500188
  H     -3.236399    1.439388    3.449751
  H     -4.899915    2.048400    3.542351
  H     -3.548446    3.068448    4.059872
  H     -1.184978   -2.448956   -2.324477
  H     -4.393947   -0.767891   -0.047156
  H     -3.586048   -2.406118   -1.737442
  H      1.022732   -1.657319   -2.083116
  H      2.679000   -0.161445   -1.056113
  H      0.021241    3.422019    2.720820
  H      2.438582    3.332081    2.166497
  H      3.206087    1.649522    0.489673

 Multiplicity           Mult            ....    1
 Number of Electrons    NEL             ....  140
 Basis Dimension        Dim             ....  564

ORBITAL ENERGIES
----------------

  NO   OCC          E(Eh)            E(eV)
   0   2.0000     -19.247202      -523.7430
   1   2.0000     -19.171260      -521.6765
   2   2.0000     -14.422074      -392.4446
   3   2.0000     -14.390308      -391.5802
   4   2.0000     -10.397449      -282.9290
   5   2.0000     -10.320003      -280.8216
   6   2.0000     -10.298205      -280.2284
   7   2.0000     -10.284919      -279.8669
   8   2.0000     -10.273042      -279.5437
   9   2.0000     -10.269548      -279.4486
  10   2.0000     -10.268373      -279.4166
  11   2.0000     -10.267542      -279.3940
  12   2.0000     -10.266993      -279.3791
  13   2.0000     -10.265880      -279.3488
  14   2.0000     -10.255110      -279.0557
  15   2.0000     -10.255060      -279.0544
  16   2.0000     -10.254735      -279.0455
  17   2.0000     -10.254171      -279.0302
  18   2.0000     -10.252522      -278.9853
  19   2.0000     -10.251544      -278.9587
  20   2.0000      -1.204630       -32.7796
  21   2.0000      -1.105473       -30.0814
  22   2.0000      -1.043119       -28.3847
  23   2.0000      -1.031564       -28.0703
  24   2.0000      -0.968805       -26.3625
  25   2.0000      -0.924578       -25.1590
  26   2.0000      -0.891981       -24.2720
  27   2.0000      -0.866615       -23.5818
  28   2.0000      -0.833561       -22.6823
  29   2.0000      -0.826561       -22.4919
  30   2.0000      -0.801371       -21.8064
  31   2.0000      -0.786081       -21.3904
  32   2.0000      -0.733646       -19.9635
  33   2.0000      -0.725570       -19.7438
  34   2.0000      -0.709580       -19.3086
  35   2.0000      -0.696400       -18.9500
  36   2.0000      -0.648432       -17.6447
  37   2.0000      -0.620944       -16.8967
  38   2.0000      -0.609799       -16.5935
  39   2.0000      -0.605477       -16.4759
  40   2.0000      -0.589703       -16.0466
  41   2.0000      -0.570110       -15.5135
  42   2.0000      -0.566810       -15.4237
  43   2.0000      -0.554708       -15.0944
  44   2.0000      -0.549317       -14.9477
  45   2.0000      -0.536969       -14.6117
  46   2.0000      -0.513502       -13.9731
  47   2.0000      -0.512215       -13.9381
  48   2.0000      -0.510686       -13.8965
  49   2.0000      -0.497431       -13.5358
  50   2.0000      -0.490998       -13.3607
  51   2.0000      -0.483457       -13.1555
  52   2.0000      -0.473809       -12.8930
  53   2.0000      -0.472077       -12.8459
  54   2.0000      -0.470741       -12.8095
  55   2.0000      -0.466168       -12.6851
  56   2.0000      -0.453967       -12.3531
  57   2.0000      -0.448723       -12.2104
  58   2.0000      -0.442524       -12.0417
  59   2.0000      -0.426463       -11.6047
  60   2.0000      -0.418230       -11.3806
  61   2.0000      -0.402253       -10.9459
  62   2.0000      -0.384734       -10.4691
  63   2.0000      -0.366503        -9.9731
  64   2.0000      -0.355252        -9.6669
  65   2.0000      -0.339260        -9.2317
  66   2.0000      -0.325550        -8.8587
  67   2.0000      -0.309787        -8.4297
  68   2.0000      -0.299445        -8.1483
  69   2.0000      -0.278624        -7.5817
  70   0.0000      -0.019371        -0.5271
  71   0.0000      -0.010918        -0.2971
  72   0.0000       0.029697         0.8081
  73   0.0000       0.059293         1.6135
  74   0.0000       0.073004         1.9865

MULLIKEN ATOMIC CHARGES
-----------------------
   0 C :   -0.169500
   1 C :   -0.124376
   2 C :   -0.189568
   3 C :    0.133809
   4 C :    0.147891
   5 O :   -0.476952
   6 C :    0.208566
   7 C :   -0.234157
   8 C :   -0.257583
   9 C :    0.161850
  10 C :    0.304358
  11 N :   -0.536820
  12 C :    0.059253
  13 C :   -0.072571
  14 C :   -0.196796
  15 C :    0.750203
  16 O :   -0.630439
  17 N :   -0.247377
  18 C :   -0.293745
  19 C :   -0.276229
  20 H :    0.144368
  21 H :    0.153082
  22 H :    0.147674
  23 H :    0.158530
  24 H :    0.148783
  25 H :    0.148248
  26 H :    0.126554
  27 H :    0.127752
  28 H :    0.128789
  29 H :    0.124959
  30 H :    0.122563
  31 H :    0.133348
  32 H :    0.137431
  33 H :    0.138103
Sum of atomic charges:   -0.0000000

LOEWDIN ATOMIC CHARGES
----------------------
   0 C :   -0.101553
   1 C :   -0.122866
   2 C :   -0.098979
   3 C :   -0.125593
   4 C :   -0.029245
   5 O :    0.182701
   6 C :   -0.082906
   7 C :   -0.092481
   8 C :   -0.094817
   9 C :   -0.090255
  10 C :   -0.092925
  11 N :    0.070583
  12 C :   -0.157693
  13 C :   -0.131539
  14 C :   -0.063883
  15 C :   -0.365797
  16 O :   -0.102566
  17 N :    0.073852
  18 C :   -0.230674
  19 C :   -0.226612
  20 H :    0.114466
  21 H :    0.120453
  22 H :    0.115238
  23 H :    0.118928
  24 H :    0.113290
  25 H :    0.117752
  26 H :    0.148719
  27 H :    0.150580
  28 H :    0.146636
  29 H :    0.150208
  30 H :    0.149972
  31 H :    0.136575
  32 H :    0.147480
  33 H :    0.152950

  Mayer bond orders larger than 0.100000
B(  0-C ,  1-C ) :   1.2637 B(  0-C ,  3-C ) :   1.5283 B(  0-C , 27-H ) :   0.9972
B(  1-C ,  2-C ) :   1.4393 B(  1-C , 28-H ) :   0.9982 B(  2-C ,  6-C ) :   1.2766
B(  2-C , 26-H ) :   0.9908 B(  3-C ,  4-C ) :   1.2269 B(  3-C ,  5-O ) :   0.9155
B(  4-C ,  6-C ) :   1.3607 B(  4-C ,  9-C ) :   1.0235 B(  5-O , 15-C ) :   1.0028
B(  6-C ,  7-C ) :   1.1097 B(  7-C ,  8-C ) :   1.5931 B(  7-C , 29-H ) :   0.9963
B(  8-C , 10-C ) :   1.1010 B(  8-C , 30-H ) :   1.0072 B(  9-C , 10-C ) :   1.3466
B(  9-C , 11-N ) :   1.3426 B( 10-C , 14-C ) :   1.2939 B( 11-N , 12-C ) :   1.5766
B( 12-C , 13-C ) :   1.3188 B( 12-C , 31-H ) :   0.9765 B( 13-C , 14-C ) :   1.4882
B( 13-C , 32-H ) :   0.9695 B( 14-C , 33-H ) :   0.9664 B( 15-C , 16-O ) :   1.8113
B( 15-C , 17-N ) :   1.3269 B( 17-N , 18-C ) :   0.9386 B( 17-N , 19-C ) :   0.9360
B( 18-C , 23-H ) :   0.9639 B( 18-C , 24-H ) :   0.9648 B( 18-C , 25-H ) :   0.9654
B( 19-C , 20-H ) :   0.9626 B( 19-C , 21-H ) :   0.9657 B( 19-C , 22-H ) :   0.9662

FINAL SINGLE POINT ENERGY      -877.995299202582

DIPOLE MOMENT
-------------

Method             : SCF
Type of density    : Electron Density
Multiplicity       :   1
Irrep              :   0
Energy             :  -877.9952992025820322 Eh
Relativity type    :
Basis              : AO
                                X                 Y                 Z
Electronic contribution:      5.591766702      -6.215517439      -5.449719372
Nuclear contribution   :     -4.667719635       5.962883917       6.593885074
                        -----------------------------------------
Total Dipole Moment    :      0.924047066      -0.252633522       1.144165703
                        -----------------------------------------
Magnitude (a.u.)       :      1.492247242
Magnitude (Debye)      :      3.792991056

VIBRATIONAL FREQUENCIES
-----------------------

Scaling factor for frequencies =  1.000000000  (already applied!)

     0:       0.00 cm**-1
     1:       0.00 cm**-1
     2:       0.00 cm**-1
     3:       0.00 cm**-1
     4:       0.00 cm**-1
     5:       0.00 cm**-1
     6:      29.36 cm**-1
     7:      35.65 cm**-1
     8:      50.64 cm**-1
     9:      59.26 cm**-1
    10:      78.75 cm**-1
    11:     101.79 cm**-1
    12:     115.96 cm**-1
    13:     131.93 cm**-1
    14:     208.45 cm**-1
    15:     218.03 cm**-1
    16:     232.83 cm**-1
    17:     238.16 cm**-1
    18:     248.47 cm**-1
    19:     303.21 cm**-1
    20:     370.03 cm**-1
    21:     381.30 cm**-1
    22:     415.31 cm**-1
    23:     430.58 cm**-1
    24:     472.53 cm**-1
    25:     500.62 cm**-1
    26:     516.83 cm**-1
    27:     531.83 cm**-1
    28:     534.09 cm**-1
    29:     569.05 cm**-1
    30:     595.72 cm**-1
    31:     618.54 cm**-1
    32:     635.11 cm**-1
    33:     673.55 cm**-1
    34:     717.04 cm**-1
    35:     740.43 cm**-1
    36:     759.44 cm**-1
    37:     765.21 cm**-1
    38:     791.20 cm**-1
    39:     819.92 cm**-1
    40:     840.08 cm**-1
    41:     857.87 cm**-1
    42:     882.43 cm**-1
    43:     885.16 cm**-1
    44:     906.69 cm**-1
    45:     950.12 cm**-1
    46:     995.09 cm**-1
    47:    1006.18 cm**-1
    48:    1013.21 cm**-1
    49:    1013.73 cm**-1
    50:    1032.09 cm**-1
    51:    1048.99 cm**-1
    52:    1064.45 cm**-1
    53:    1089.05 cm**-1
    54:    1099.97 cm**-1
    55:    1121.54 cm**-1
    56:    1134.67 cm**-1
    57:    1159.00 cm**-1
    58:    1175.05 cm**-1
    59:    1179.80 cm**-1
    60:    1196.69 cm**-1
    61:    1205.43 cm**-1
    62:    1225.58 cm**-1
    63:    1239.88 cm**-1
    64:    1274.46 cm**-1
    65:    1288.95 cm**-1
    66:    1307.92 cm**-1
    67:    1336.71 cm**-1
    68:    1359.02 cm**-1
    69:    1365.38 cm**-1
    70:    1438.70 cm**-1
    71:    1445.17 cm**-1
    72:    1446.86 cm**-1
    73:    1467.12 cm**-1
    74:    1472.27 cm**-1
    75:    1482.37 cm**-1
    76:    1485.37 cm**-1
    77:    1491.80 cm**-1
    78:    1498.48 cm**-1
    79:    1499.83 cm**-1
    80:    1540.11 cm**-1
    81:    1556.56 cm**-1
    82:    1581.87 cm**-1
    83:    1644.43 cm**-1
    84:    1673.89 cm**-1
    85:    1686.32 cm**-1
    86:    1705.63 cm**-1
    87:    1734.65 cm**-1
    88:    3050.12 cm**-1
    89:    3053.52 cm**-1
    90:    3106.11 cm**-1
    91:    3114.98 cm**-1
    92:    3173.27 cm**-1
    93:    3193.49 cm**-1
    94:    3196.64 cm**-1
    95:    3198.70 cm**-1
    96:    3201.78 cm**-1
    97:    3202.85 cm**-1
    98:    3212.63 cm**-1
    99:    3214.80 cm**-1
   100:    3225.57 cm**-1
   101:    3227.25 cm**-1

IR SPECTRUM
-----------

 Mode   freq       eps      Int      T**2         TX        TY        TZ
       cm**-1   L/(mol*cm) km/mol    a.u.
----------------------------------------------------------------------------
  6:     29.36   0.000633    3.20  0.006734  ( 0.069472  0.036117  0.024552)
  7:     35.65   0.000520    2.63  0.004553  ( 0.045562 -0.037007  0.033275)
  8:     50.64   0.000169    0.86  0.001043  ( 0.017897 -0.020505  0.017376)
  9:     59.26   0.000367    1.86  0.001933  ( 0.033051  0.022640  0.018114)
 10:     78.75   0.000787    3.98  0.003119  (-0.051672 -0.016200 -0.013648)
 11:    101.79   0.002201   11.12  0.006747  (-0.015415  0.060078 -0.053853)
 12:    115.96   0.000401    2.03  0.001080  (-0.015208  0.029101 -0.001472)
 13:    131.93   0.000638    3.22  0.001509  (-0.035843 -0.014445 -0.003943)
 14:    208.45   0.000184    0.93  0.000276  (-0.014716  0.000738  0.007669)
 15:    218.03   0.000552    2.79  0.000790  (-0.025687 -0.010021 -0.005471)
 16:    232.83   0.000317    1.60  0.000425  (-0.014977 -0.002568 -0.013919)
 17:    238.16   0.001306    6.60  0.001711  ( 0.000125 -0.027583  0.030822)
 18:    248.47   0.000777    3.93  0.000976  ( 0.005723 -0.013534 -0.027576)
 19:    303.21   0.000111    0.56  0.000114  (-0.001455 -0.004693  0.009501)
 20:    370.03   0.003973   20.08  0.003350  (-0.022645  0.048444  0.022150)
 21:    381.30   0.000730    3.69  0.000598  ( 0.011753 -0.020964 -0.004460)
 22:    415.31   0.000809    4.09  0.000608  ( 0.010391 -0.009789 -0.020110)
 23:    430.58   0.000063    0.32  0.000046  ( 0.003077 -0.005368 -0.002745)
 24:    472.53   0.001820    9.20  0.001202  (-0.015373  0.021942 -0.021998)
 25:    500.62   0.000215    1.09  0.000134  ( 0.003953 -0.005242 -0.009549)
 26:    516.83   0.000020    0.10  0.000012  ( 0.002307  0.001744 -0.001972)
 27:    531.83   0.001364    6.89  0.000800  ( 0.006953  0.027112 -0.004087)
 28:    534.09   0.000935    4.73  0.000547  (-0.021885  0.006769 -0.004668)
 29:    569.05   0.001307    6.61  0.000717  ( 0.014166  0.015946  0.016183)
 30:    595.72   0.000343    1.73  0.000180  (-0.008553  0.002508  0.010010)
 31:    618.54   0.002062   10.42  0.001041  ( 0.024595 -0.003704 -0.020541)
 32:    635.11   0.002169   10.96  0.001066  (-0.027659 -0.016421  0.005591)
 33:    673.55   0.001322    6.68  0.000612  ( 0.018341  0.004673  0.015946)
 34:    717.04   0.000525    2.65  0.000228  (-0.011879  0.001812  0.009160)
 35:    740.43   0.000824    4.16  0.000347  ( 0.012773  0.003823  0.013018)
 36:    759.44   0.020648  104.35  0.008485  (-0.005310 -0.073241  0.055607)
 37:    765.21   0.012411   62.72  0.005061  ( 0.061501  0.008940  0.034627)
 38:    791.20   0.004077   20.60  0.001608  ( 0.012940 -0.016905  0.033982)
 39:    819.92   0.000401    2.02  0.000152  ( 0.003147  0.010540 -0.005611)
 40:    840.08   0.002455   12.41  0.000912  (-0.028542  0.002065 -0.009651)
 41:    857.87   0.005450   27.54  0.001982  (-0.008856 -0.004565  0.043396)
 42:    882.43   0.013961   70.55  0.004937  (-0.015779  0.050316 -0.046438)
 43:    885.16   0.000769    3.88  0.000271  ( 0.007212  0.014773  0.000846)
 44:    906.69   0.006739   34.06  0.002319  (-0.013274  0.040559 -0.022322)
 45:    950.12   0.000629    3.18  0.000206  (-0.006638  0.010717  0.006898)
 46:    995.09   0.000115    0.58  0.000036  ( 0.000390 -0.003569  0.004805)
 47:   1006.18   0.000180    0.91  0.000056  ( 0.003657 -0.005831  0.002929)
 48:   1013.21   0.006622   33.47  0.002040  (-0.026624  0.005882  0.036004)
 49:   1013.73   0.001193    6.03  0.000367  (-0.008730 -0.000811  0.017044)
 50:   1032.09   0.000239    1.21  0.000072  (-0.001211  0.005763 -0.006141)
 51:   1048.99   0.006172   31.19  0.001836  ( 0.037456 -0.019456  0.007381)
 52:   1064.45   0.003133   15.83  0.000919  ( 0.011526 -0.025503  0.011636)
 53:   1089.05   0.002981   15.06  0.000854  (-0.003732  0.025655 -0.013492)
 54:   1099.97   0.000801    4.05  0.000227  ( 0.002010 -0.014103 -0.004919)
 55:   1121.54   0.000515    2.60  0.000143  (-0.010437 -0.005288 -0.002554)
 56:   1134.67   0.000499    2.52  0.000137  ( 0.003455  0.002316 -0.010948)
 57:   1159.00   0.003378   17.07  0.000910  (-0.022334 -0.019110 -0.006748)
 58:   1175.05   0.000557    2.82  0.000148  (-0.003489  0.011332  0.002714)
 59:   1179.80   0.020806  105.14  0.005503  ( 0.024678 -0.053963 -0.044522)
 60:   1196.69   0.016960   85.71  0.004423  (-0.029391  0.049485  0.033319)
 61:   1205.43   0.119626  604.54  0.030969  (-0.076599  0.141824  0.070621)
 62:   1225.58   0.006509   32.90  0.001657  (-0.021299  0.031233  0.015108)
 63:   1239.88   0.018473   93.36  0.004649  ( 0.021926 -0.057486 -0.029395)
 64:   1274.46   0.029920  151.21  0.007326  (-0.049387  0.064150  0.027787)
 65:   1288.95   0.019326   97.67  0.004679  (-0.031322  0.056503  0.022480)
 66:   1307.92   0.002602   13.15  0.000621  ( 0.000683  0.021278 -0.012950)
 67:   1336.71   0.002427   12.26  0.000567  ( 0.016356 -0.014478 -0.009455)
 68:   1359.02   0.004664   23.57  0.001071  ( 0.020039 -0.020855 -0.015314)
 69:   1365.38   0.006672   33.72  0.001525  (-0.022775  0.025137  0.019349)
 70:   1438.70   0.058786  297.08  0.012751  (-0.043246  0.090269  0.052272)
 71:   1445.17   0.005867   29.65  0.001267  (-0.004069  0.006191  0.034815)
 72:   1446.86   0.004877   24.65  0.001052  (-0.028973 -0.013140 -0.006313)
 73:   1467.12   0.004069   20.56  0.000865  (-0.003109  0.029252  0.000166)
 74:   1472.27   0.008943   45.20  0.001896  (-0.011669  0.041478 -0.006249)
 75:   1482.37   0.008679   43.86  0.001827  ( 0.003387  0.029779  0.030476)
 76:   1485.37   0.000453    2.29  0.000095  ( 0.007725  0.000299 -0.005945)
 77:   1491.80   0.007565   38.23  0.001582  (-0.032481 -0.006627 -0.021988)
 78:   1498.48   0.003171   16.03  0.000660  ( 0.005662 -0.023663  0.008274)
 79:   1499.83   0.006310   31.89  0.001313  ( 0.031779 -0.009691 -0.014461)
 80:   1540.11   0.031325  158.30  0.006347  ( 0.030580 -0.073108 -0.008201)
 81:   1556.56   0.002091   10.56  0.000419  (-0.004692 -0.017932 -0.008693)
 82:   1581.87   0.006161   31.13  0.001215  (-0.023152  0.020229  0.016436)
 83:   1644.43   0.008394   42.42  0.001593  ( 0.039154 -0.003406 -0.006952)
 84:   1673.89   0.013202   66.72  0.002461  (-0.007243 -0.037537 -0.031618)
 85:   1686.32   0.000368    1.86  0.000068  (-0.006344 -0.001192 -0.005134)
 86:   1705.63   0.006180   31.23  0.001131  ( 0.030085  0.014914  0.001770)
 87:   1734.65   0.207257  1047.39  0.037286  ( 0.041723 -0.000589 -0.188532)
 88:   3050.12   0.006556   33.13  0.000671  ( 0.000838  0.022090 -0.013496)
 89:   3053.52   0.019245   97.25  0.001967  ( 0.030109 -0.016234 -0.028225)
 90:   3106.11   0.009105   46.01  0.000915  (-0.023898 -0.014978 -0.010922)
 91:   3114.98   0.003558   17.98  0.000356  ( 0.011899  0.010417  0.010313)
 92:   3173.27   0.005579   28.19  0.000549  ( 0.001757 -0.017013 -0.016004)
 93:   3193.49   0.000507    2.56  0.000050  ( 0.000245  0.003582 -0.006055)
 94:   3196.64   0.000017    0.09  0.000002  (-0.000336  0.000872  0.000889)
 95:   3198.70   0.001107    5.60  0.000108  ( 0.006730 -0.007889  0.000695)
 96:   3201.78   0.001059    5.35  0.000103  ( 0.009421 -0.001634 -0.003431)
 97:   3202.85   0.000031    0.16  0.000003  ( 0.000880 -0.000768 -0.001286)
 98:   3212.63   0.001746    8.82  0.000170  ( 0.011615 -0.002856 -0.005152)
 99:   3214.80   0.003647   18.43  0.000354  ( 0.003914 -0.013409 -0.012608)
100:   3225.57   0.001038    5.24  0.000100  ( 0.007157  0.005917  0.003762)
101:   3227.25   0.001681    8.49  0.000163  (-0.007600 -0.008256 -0.006050)

--------------------------
THERMOCHEMISTRY AT 298.15K
--------------------------

Temperature         ...   298.15 K
Pressure            ...     1.00 atm
Total Mass          ...   266.30 AMU
Quasi RRHO          ...     True
Cut-Off Frequency   ...     1.00 cm^-1

Throughout the following assumptions are being made:
  (1) The electronic state is orbitally nondegenerate
  (2) There are no thermally accessible electronically excited states
  (3) Hindered rotations indicated by low frequency modes are not
      treated as such but are treated as vibrations and this may
      cause some error
  (4) All equations used are the standard statistical mechanics
      equations for an ideal gas
  (5) All vibrations are strictly harmonic

freq.      29.36  E(vib)   ...       0.55
freq.      35.65  E(vib)   ...       0.54
freq.      50.64  E(vib)   ...       0.52
freq.      59.26  E(vib)   ...       0.51
freq.      78.75  E(vib)   ...       0.49
freq.     101.79  E(vib)   ...       0.46
freq.     115.96  E(vib)   ...       0.44
freq.     131.93  E(vib)   ...       0.42
freq.     208.45  E(vib)   ...       0.34
freq.     218.03  E(vib)   ...       0.33
freq.     232.83  E(vib)   ...       0.32
freq.     238.16  E(vib)   ...       0.32
freq.     248.47  E(vib)   ...       0.31
freq.     303.21  E(vib)   ...       0.26
freq.     370.03  E(vib)   ...       0.21
freq.     381.30  E(vib)   ...       0.21
freq.     415.31  E(vib)   ...       0.18
freq.     430.58  E(vib)   ...       0.18
freq.     472.53  E(vib)   ...       0.15
freq.     500.62  E(vib)   ...       0.14
freq.     516.83  E(vib)   ...       0.13
freq.     531.83  E(vib)   ...       0.13
freq.     534.09  E(vib)   ...       0.13
freq.     569.05  E(vib)   ...       0.11
freq.     595.72  E(vib)   ...       0.10
freq.     618.54  E(vib)   ...       0.09
freq.     635.11  E(vib)   ...       0.09
freq.     673.55  E(vib)   ...       0.08
freq.     717.04  E(vib)   ...       0.07
freq.     740.43  E(vib)   ...       0.06
freq.     759.44  E(vib)   ...       0.06
freq.     765.21  E(vib)   ...       0.06
freq.     791.20  E(vib)   ...       0.05
freq.     819.92  E(vib)   ...       0.05
freq.     840.08  E(vib)   ...       0.04
freq.     857.87  E(vib)   ...       0.04
freq.     882.43  E(vib)   ...       0.04
freq.     885.16  E(vib)   ...       0.04
freq.     906.69  E(vib)   ...       0.03
freq.     950.12  E(vib)   ...       0.03
freq.     995.09  E(vib)   ...       0.02
freq.    1006.18  E(vib)   ...       0.02
freq.    1013.21  E(vib)   ...       0.02
freq.    1013.73  E(vib)   ...       0.02
freq.    1032.09  E(vib)   ...       0.02
freq.    1048.99  E(vib)   ...       0.02
freq.    1064.45  E(vib)   ...       0.02
freq.    1089.05  E(vib)   ...       0.02
freq.    1099.97  E(vib)   ...       0.02
freq.    1121.54  E(vib)   ...       0.01
freq.    1134.67  E(vib)   ...       0.01
freq.    1159.00  E(vib)   ...       0.01
freq.    1175.05  E(vib)   ...       0.01
freq.    1179.80  E(vib)   ...       0.01
freq.    1196.69  E(vib)   ...       0.01
freq.    1205.43  E(vib)   ...       0.01
freq.    1225.58  E(vib)   ...       0.01
freq.    1239.88  E(vib)   ...       0.01
freq.    1274.46  E(vib)   ...       0.01
freq.    1288.95  E(vib)   ...       0.01
freq.    1307.92  E(vib)   ...       0.01
freq.    1336.71  E(vib)   ...       0.01
freq.    1359.02  E(vib)   ...       0.01
freq.    1365.38  E(vib)   ...       0.01
freq.    1438.70  E(vib)   ...       0.00
freq.    1445.17  E(vib)   ...       0.00
freq.    1446.86  E(vib)   ...       0.00
freq.    1467.12  E(vib)   ...       0.00
freq.    1472.27  E(vib)   ...       0.00
freq.    1482.37  E(vib)   ...       0.00
freq.    1485.37  E(vib)   ...       0.00
freq.    1491.80  E(vib)   ...       0.00
freq.    1498.48  E(vib)   ...       0.00
freq.    1499.83  E(vib)   ...       0.00
freq.    1540.11  E(vib)   ...       0.00
freq.    1556.56  E(vib)   ...       0.00
freq.    1581.87  E(vib)   ...       0.00
freq.    1644.43  E(vib)   ...       0.00
freq.    1673.89  E(vib)   ...       0.00
freq.    1686.32  E(vib)   ...       0.00
freq.    1705.63  E(vib)   ...       0.00
freq.    1734.65  E(vib)   ...       0.00
freq.    3050.12  E(vib)   ...       0.00
freq.    3053.52  E(vib)   ...       0.00
freq.    3106.11  E(vib)   ...       0.00
freq.    3114.98  E(vib)   ...       0.00
freq.    3173.27  E(vib)   ...       0.00
freq.    3193.49  E(vib)   ...       0.00
freq.    3196.64  E(vib)   ...       0.00
freq.    3198.70  E(vib)   ...       0.00
freq.    3201.78  E(vib)   ...       0.00
freq.    3202.85  E(vib)   ...       0.00
freq.    3212.63  E(vib)   ...       0.00
freq.    3214.80  E(vib)   ...       0.00
freq.    3225.57  E(vib)   ...       0.00
freq.    3227.25  E(vib)   ...       0.00

------------
INNER ENERGY
------------

The inner energy is: U= E(el) + E(ZPE) + E(vib) + E(rot) + E(trans)
    E(el)   - is the total energy from the electronic structure calculation
              = E(kin-el) + E(nuc-el) + E(el-el) + E(nuc-nuc)
    E(ZPE)  - the the zero temperature vibrational energy from the frequency calculation
    E(vib)  - the the finite temperature correction to E(ZPE) due to population
              of excited vibrational states
    E(rot)  - is the rotational thermal energy
    E(trans)- is the translational thermal energy

Summary of contributions to the inner energy U:
Electronic energy                ...   -877.99529920 Eh
Zero point energy                ...      0.27194291 Eh     170.65 kcal/mol
Thermal vibrational correction   ...      0.01383234 Eh       8.68 kcal/mol
Thermal rotational correction    ...      0.00141627 Eh       0.89 kcal/mol
Thermal translational correction ...      0.00141627 Eh       0.89 kcal/mol
-----------------------------------------------------------------------
Total thermal energy                   -877.70669141 Eh

Summary of corrections to the electronic energy:
(perhaps to be used in another calculation)
Total thermal correction                  0.01666489 Eh      10.46 kcal/mol
Non-thermal (ZPE) correction              0.27194291 Eh     170.65 kcal/mol
-----------------------------------------------------------------------
Total correction                          0.28860779 Eh     181.10 kcal/mol

--------
ENTHALPY
--------

The enthalpy is H = U + kB*T
                kB is Boltzmann's constant
Total thermal energy              ...   -877.70669141 Eh
Thermal Enthalpy correction       ...      0.00094421 Eh       0.59 kcal/mol
-----------------------------------------------------------------------
Total Enthalpy                    ...   -877.70574720 Eh

Note: Only C1 symmetry has been detected, increase convergence thresholds
      if your molecule has a higher symmetry. Symmetry factor of 1.0 is

Rotational constants in cm-1:     0.016346     0.011136     0.007222

                             ****ORCA TERMINATED NORMALLY****
TOTAL RUN TIME: 0 days 12 hours 40 minutes 16 seconds 397 msec
