                         Program Version 6.0.1  -  RELEASE   -
|  1> ! B3LYP/G OPT FREQ 6-311G* CPCM(Water)
|  2>
|  3> %tddft
|  4>     NRoots 3
|  5>     IRoot 1
|  6> end
|  7>
|  8> * xyz 0 1
|  9> C  -3.17282181933942108998 -0.72298139733973276755 -0.32705670606900416608
| 10> C  -2.69037638358254760362 -1.67367874990712595107 -1.22467455858177398653
| 11> C  -1.34735141127269275607 -1.74600343523878809293 -1.48703196670889714603
| 12> C  -2.30780102521713503805 0.14685678327596130011 0.29958985238513841098
| 13> C  -0.91860163270237682465 0.10012033921434504435 0.05326769541519826845
| 14> O  -2.80039310143607611536 1.05878175090601933661 1.21920598733154550430
| 15> C  -0.44509367410599454118 -0.86986927991730755849 -0.86312582939748905275
| 16> C  0.94688197401696094779 -0.94341280380425196483 -1.16145485822880267790
| 17> C  1.83405798609766823581 -0.09389034428455511616 -0.59729757898922675174
| 18> C  0.02849865832756992567 0.99296441552410574793 0.67271019178450319753
| 19> C  1.40035513193031957435 0.89460628695993760218 0.32835468479161300515
| 20> N  -0.40232631059562518061 1.90019779702223812201 1.56183352542628917092
| 21> C  0.45915793776724656006 2.72279355563820546493 2.10880894869473412001
| 22> C  1.82782359688693962774 2.71920906218230218343 1.82696110231723962691
| 23> C  2.29754990188751762048 1.79098907010168550968 0.93104686198945862952
| 24> C  -3.71386291688628755736 1.97194188603786857428 0.80566054525648012063
| 25> O  -4.13680213907804716911 2.02641208397079175541 -0.34213943517507483527
| 26> N  -4.07689890960657219665 2.79871045485984915047 1.78898024838363145506
| 27> C  -3.51861813671623657740 2.73299422200073305333 3.12245076034527180298
| 28> C  -5.10457544432298870873 3.79101490101103077990 1.56652654065346630397
| 29> H  -5.46796717050829705897 3.69490448443293661995 0.54563964015537902430
| 30> H  -4.69513431505454992276 4.79094374462168115514 1.71226296438636715891
| 31> H  -5.92683044949372117571 3.63094013819908756346 2.26441986551258267468
| 32> H  -2.53816130748590929045 2.26630852217879752430 3.08025999080462220547
| 33> H  -4.16926540431060299596 2.15719996026347082818 3.78314470122325285928
| 34> H  -3.42473209310730464239 3.74712816199290710273 3.50572304517920141365
| 35> H  -0.96347025233273320133 -2.47522388215560251723 -2.18335154945832865536
| 36> H  -4.22986503383935552591 -0.65048616249954305246 -0.12087398937756421713
| 37> H  -3.38428203379895142788 -2.34490187032552732660 -1.70496454704522881762
| 38> H  1.27123103010974802807 -1.69778422962584274458 -1.86165447583588261615
| 39> H  2.88678971009763785105 -0.14486164751454055910 -0.83174302072788419693
| 40> H  0.03944264191478930037 3.42710054755877946420 2.81485095323771083997
| 41> H  2.48495191699559292431 3.42484642714072107239 2.30864536688975352519
| 42> H  3.34665047550221306238 1.73395920937777359150 0.67940504304258519941
| 43> *
| 44>
| 45>                          ****END OF INPUT****
 Total Charge           Charge          ....    0
 Multiplicity           Mult            ....    1
 Number of Electrons    NEL             ....  140
FINAL SINGLE POINT ENERGY      -878.177459338406
FINAL SINGLE POINT ENERGY      -878.187254692677
FINAL SINGLE POINT ENERGY      -878.188940875796
FINAL SINGLE POINT ENERGY      -878.189416284972
FINAL SINGLE POINT ENERGY      -878.189714712813
FINAL SINGLE POINT ENERGY      -878.189855324586
FINAL SINGLE POINT ENERGY      -878.189978643065
FINAL SINGLE POINT ENERGY      -878.190035292822
FINAL SINGLE POINT ENERGY      -878.190087860603
FINAL SINGLE POINT ENERGY      -878.190117292346
FINAL SINGLE POINT ENERGY      -878.190121758176
FINAL SINGLE POINT ENERGY      -878.190128588376
FINAL SINGLE POINT ENERGY      -878.190129967354
FINAL SINGLE POINT ENERGY      -878.190131759069
FINAL SINGLE POINT ENERGY      -878.190132039350
FINAL SINGLE POINT ENERGY      -878.190133917841
FINAL SINGLE POINT ENERGY      -878.190135884405
FINAL SINGLE POINT ENERGY      -878.190137414589
                    ***********************HURRAY********************

CARTESIAN COORDINATES (ANGSTROEM)
---------------------------------
  C     -3.178156   -0.439038   -0.545620
  C     -2.728029   -1.496972   -1.340989
  C     -1.363548   -1.736218   -1.447504
  C     -2.259771    0.389374    0.122346
  C     -0.842229    0.237340   -0.020555
  O     -2.720695    1.280339    1.041139
  C     -0.406898   -0.910777   -0.794644
  C      0.961036   -1.187484   -0.918660
  C      1.910380   -0.365449   -0.309042
  C      0.136665    1.160152    0.494917
  C      1.540680    0.808977    0.377476
  N     -0.247145    2.331654    1.071381
  C      0.703162    3.117917    1.623565
  C      2.063143    2.819940    1.633981
  C      2.501934    1.663375    0.980558
  C     -3.794254    2.125172    0.763005
  O     -4.226646    2.274378   -0.362211
  N     -4.209407    2.746467    1.882710
  C     -3.703641    2.468240    3.226114
  C     -5.344002    3.661597    1.800171
  H     -5.592720    3.841784    0.758866
  H     -5.085788    4.607325    2.281634
  H     -6.212900    3.234809    2.310207
  H     -2.746033    1.962111    3.176906
  H     -4.413439    1.847501    3.781628
  H     -3.579439    3.414171    3.756718
  H     -1.002362   -2.569124   -2.041467
  H     -4.236310   -0.284187   -0.386606
  H     -3.441387   -2.143315   -1.837959
  H      1.277177   -2.052932   -1.490930
  H      2.963309   -0.622850   -0.371429
  H      0.346239    4.051507    2.052060
  H      2.763910    3.506041    2.097421
  H      3.555325    1.416006    0.909193

 Multiplicity           Mult            ....    1
 Number of Electrons    NEL             ....  140
 Basis Dimension        Dim             ....  402

ORBITAL ENERGIES
----------------

  NO   OCC          E(Eh)            E(eV)
   0   2.0000     -19.168552      -521.6028
   1   2.0000     -19.096608      -519.6451
   2   2.0000     -14.351405      -390.5216
   3   2.0000     -14.314742      -389.5239
   4   2.0000     -10.325155      -280.9618
   5   2.0000     -10.251945      -278.9696
   6   2.0000     -10.227714      -278.3102
   7   2.0000     -10.212947      -277.9084
   8   2.0000     -10.200795      -277.5777
   9   2.0000     -10.198542      -277.5164
  10   2.0000     -10.197839      -277.4973
  11   2.0000     -10.197763      -277.4953
  12   2.0000     -10.196739      -277.4674
  13   2.0000     -10.195904      -277.4447
  14   2.0000     -10.185335      -277.1571
  15   2.0000     -10.185330      -277.1569
  16   2.0000     -10.184546      -277.1356
  17   2.0000     -10.183639      -277.1109
  18   2.0000     -10.180622      -277.0288
  19   2.0000     -10.179308      -276.9931
  20   2.0000      -1.119355       -30.4592
  21   2.0000      -1.031895       -28.0793
  22   2.0000      -0.951368       -25.8880
  23   2.0000      -0.946150       -25.7461
  24   2.0000      -0.876267       -23.8444
  25   2.0000      -0.834724       -22.7140
  26   2.0000      -0.805451       -21.9174
  27   2.0000      -0.782756       -21.2999
  28   2.0000      -0.753336       -20.4993
  29   2.0000      -0.738772       -20.1030
  30   2.0000      -0.723819       -19.6961
  31   2.0000      -0.708220       -19.2716
  32   2.0000      -0.656885       -17.8747
  33   2.0000      -0.650740       -17.7075
  34   2.0000      -0.635362       -17.2891
  35   2.0000      -0.612383       -16.6638
  36   2.0000      -0.578760       -15.7489
  37   2.0000      -0.544980       -14.8297
  38   2.0000      -0.535577       -14.5738
  39   2.0000      -0.529752       -14.4153
  40   2.0000      -0.517822       -14.0907
  41   2.0000      -0.495249       -13.4764
  42   2.0000      -0.492736       -13.4080
  43   2.0000      -0.483825       -13.1655
  44   2.0000      -0.479624       -13.0512
  45   2.0000      -0.465060       -12.6549
  46   2.0000      -0.446104       -12.1391
  47   2.0000      -0.444083       -12.0841
  48   2.0000      -0.438230       -11.9248
  49   2.0000      -0.428352       -11.6561
  50   2.0000      -0.419632       -11.4188
  51   2.0000      -0.411772       -11.2049
  52   2.0000      -0.409721       -11.1491
  53   2.0000      -0.407750       -11.0954
  54   2.0000      -0.406300       -11.0560
  55   2.0000      -0.403857       -10.9895
  56   2.0000      -0.388802       -10.5798
  57   2.0000      -0.384162       -10.4536
  58   2.0000      -0.373879       -10.1738
  59   2.0000      -0.366133        -9.9630
  60   2.0000      -0.355673        -9.6784
  61   2.0000      -0.339332        -9.2337
  62   2.0000      -0.325313        -8.8522
  63   2.0000      -0.307813        -8.3760
  64   2.0000      -0.291725        -7.9382
  65   2.0000      -0.276380        -7.5207
  66   2.0000      -0.261803        -7.1240
  67   2.0000      -0.254684        -6.9303
  68   2.0000      -0.243638        -6.6297
  69   2.0000      -0.218713        -5.9515
  70   0.0000      -0.068594        -1.8665
  71   0.0000      -0.055387        -1.5072
  72   0.0000      -0.012950        -0.3524
  73   0.0000       0.012498         0.3401
  74   0.0000       0.036806         1.0015

----------------------------------------------------------------------------------------------------
                     ABSORPTION SPECTRUM VIA TRANSITION ELECTRIC DIPOLE MOMENTS
----------------------------------------------------------------------------------------------------
     Transition      Energy     Energy  Wavelength fosc(D2)      D2        DX        DY        DZ
                      (eV)      (cm-1)    (nm)                 (au**2)    (au)      (au)      (au)
----------------------------------------------------------------------------------------------------
  0-1A  ->  1-1A    3.513170   28335.6   352.9   0.286064806   3.32359  -1.45227  -0.89930  -0.63699
  0-1A  ->  2-1A    3.913402   31563.7   316.8   0.178833357   1.86525   0.32257   1.09725   0.74648
  0-1A  ->  3-1A    4.142629   33412.6   299.3   0.012672459   0.12486  -0.32248  -0.05659   0.13292

MULLIKEN ATOMIC CHARGES
-----------------------
   0 C :   -0.204343
   1 C :   -0.226773
   2 C :   -0.176092
   3 C :    0.218490
   4 C :   -0.016546
   5 O :   -0.320940
   6 C :   -0.002360
   7 C :   -0.223138
   8 C :   -0.241381
   9 C :    0.132204
  10 C :    0.009252
  11 N :   -0.403634
  12 C :   -0.085213
  13 C :   -0.302867
  14 C :   -0.189837
  15 C :    0.541174
  16 O :   -0.430716
  17 N :   -0.331226
  18 C :   -0.520312
  19 C :   -0.523444
  20 H :    0.241208
  21 H :    0.243537
  22 H :    0.240808
  23 H :    0.250561
  24 H :    0.239202
  25 H :    0.240949
  26 H :    0.246530
  27 H :    0.252490
  28 H :    0.238644
  29 H :    0.234894
  30 H :    0.228712
  31 H :    0.209788
  32 H :    0.213812
  33 H :    0.216567
Sum of atomic charges:   -0.0000000

LOEWDIN ATOMIC CHARGES
----------------------
   0 C :   -0.101621
   1 C :   -0.117278
   2 C :   -0.028863
   3 C :    0.026676
   4 C :   -0.068321
   5 O :    0.098914
   6 C :   -0.049359
   7 C :   -0.087903
   8 C :   -0.092275
   9 C :   -0.018882
  10 C :   -0.042375
  11 N :   -0.094863
  12 C :   -0.126209
  13 C :   -0.151990
  14 C :   -0.151506
  15 C :   -0.100621
  16 O :   -0.163385
  17 N :    0.047074
  18 C :   -0.240053
  19 C :   -0.237217
  20 H :    0.120670
  21 H :    0.119941
  22 H :    0.118005
  23 H :    0.119899
  24 H :    0.116835
  25 H :    0.120143
  26 H :    0.133940
  27 H :    0.130820
  28 H :    0.130458
  29 H :    0.127854
  30 H :    0.124316
  31 H :    0.102845
  32 H :    0.118174
  33 H :    0.116156

  Mayer bond orders larger than 0.100000
B(  0-C ,  1-C ) :   1.3534 B(  0-C ,  3-C ) :   1.3278 B(  0-C , 27-H ) :   0.9016
B(  1-C ,  2-C ) :   1.4134 B(  1-C , 28-H ) :   0.9229 B(  2-C ,  6-C ) :   1.2467
B(  2-C , 26-H ) :   0.9146 B(  3-C ,  4-C ) :   1.2074 B(  3-C ,  5-O ) :   1.0538
B(  4-C ,  6-C ) :   1.2367 B(  4-C ,  9-C ) :   1.2537 B(  5-O , 15-C ) :   0.9765
B(  6-C ,  7-C ) :   1.3459 B(  7-C ,  8-C ) :   1.3754 B(  7-C , 29-H ) :   0.9188
B(  8-C , 10-C ) :   1.3044 B(  8-C , 30-H ) :   0.9242 B(  9-C , 10-C ) :   1.1406
B(  9-C , 11-N ) :   1.4423 B( 10-C , 14-C ) :   1.2592 B( 11-N , 12-C ) :   1.3906
B( 12-C , 13-C ) :   1.4030 B( 12-C , 31-H ) :   0.9337 B( 13-C , 14-C ) :   1.3457
B( 13-C , 32-H ) :   0.9270 B( 14-C , 33-H ) :   0.9332 B( 15-C , 16-O ) :   1.8941
B( 15-C , 17-N ) :   1.2348 B( 17-N , 18-C ) :   0.9421 B( 17-N , 19-C ) :   0.9525
B( 18-C , 23-H ) :   0.9095 B( 18-C , 24-H ) :   0.9133 B( 18-C , 25-H ) :   0.9176
B( 19-C , 20-H ) :   0.9142 B( 19-C , 21-H ) :   0.9173 B( 19-C , 22-H ) :   0.9158

FINAL SINGLE POINT ENERGY      -878.190133078000

DIPOLE MOMENT
-------------

Method             : TDA/CIS
Type of density    : Electron Density
Level              : Relaxed density
State              :   1
Multiplicity       :   1
Irrep              :   0
Energy             :     0.0000000000000000 Eh
Relativity type    :
Basis              : AO
                                X                 Y                 Z
Electronic contribution:      5.175669191      -5.564096207      -6.546714247
Nuclear contribution   :     -5.904143828       4.380657504       7.408459725
                        -----------------------------------------
Total Dipole Moment    :     -0.728474638      -1.183438703       0.861745478
                        -----------------------------------------
Magnitude (a.u.)       :      1.635178196
Magnitude (Debye)      :      4.156292667

VIBRATIONAL FREQUENCIES
-----------------------

Scaling factor for frequencies =  1.000000000  (already applied!)

     0:       0.00 cm**-1
     1:       0.00 cm**-1
     2:       0.00 cm**-1
     3:       0.00 cm**-1
     4:       0.00 cm**-1
     5:       0.00 cm**-1
     6:      24.64 cm**-1
     7:      27.23 cm**-1
     8:      45.15 cm**-1
     9:      81.24 cm**-1
    10:      88.36 cm**-1
    11:     107.61 cm**-1
    12:     111.07 cm**-1
    13:     140.59 cm**-1
    14:     179.81 cm**-1
    15:     202.58 cm**-1
    16:     213.45 cm**-1
    17:     231.92 cm**-1
    18:     242.36 cm**-1
    19:     255.47 cm**-1
    20:     341.47 cm**-1
    21:     357.92 cm**-1
    22:     384.71 cm**-1
    23:     400.59 cm**-1
    24:     442.70 cm**-1
    25:     458.14 cm**-1
    26:     467.51 cm**-1
    27:     490.31 cm**-1
    28:     501.80 cm**-1
    29:     518.26 cm**-1
    30:     531.26 cm**-1
    31:     582.33 cm**-1
    32:     596.67 cm**-1
    33:     622.95 cm**-1
    34:     656.62 cm**-1
    35:     683.33 cm**-1
    36:     691.55 cm**-1
    37:     702.13 cm**-1
    38:     737.88 cm**-1
    39:     739.08 cm**-1
    40:     775.78 cm**-1
    41:     805.85 cm**-1
    42:     810.99 cm**-1
    43:     822.32 cm**-1
    44:     831.69 cm**-1
    45:     840.77 cm**-1
    46:     880.23 cm**-1
    47:     912.24 cm**-1
    48:     925.76 cm**-1
    49:     937.01 cm**-1
    50:     973.16 cm**-1
    51:     985.67 cm**-1
    52:    1014.66 cm**-1
    53:    1071.77 cm**-1
    54:    1082.68 cm**-1
    55:    1083.74 cm**-1
    56:    1101.01 cm**-1
    57:    1116.12 cm**-1
    58:    1128.55 cm**-1
    59:    1134.32 cm**-1
    60:    1172.86 cm**-1
    61:    1181.48 cm**-1
    62:    1197.39 cm**-1
    63:    1201.95 cm**-1
    64:    1253.91 cm**-1
    65:    1255.31 cm**-1
    66:    1277.70 cm**-1
    67:    1289.34 cm**-1
    68:    1325.63 cm**-1
    69:    1365.69 cm**-1
    70:    1377.72 cm**-1
    71:    1406.98 cm**-1
    72:    1416.88 cm**-1
    73:    1427.69 cm**-1
    74:    1444.22 cm**-1
    75:    1449.23 cm**-1
    76:    1454.97 cm**-1
    77:    1470.19 cm**-1
    78:    1490.25 cm**-1
    79:    1501.08 cm**-1
    80:    1503.49 cm**-1
    81:    1504.20 cm**-1
    82:    1514.41 cm**-1
    83:    1534.37 cm**-1
    84:    1543.61 cm**-1
    85:    1553.50 cm**-1
    86:    1567.60 cm**-1
    87:    1754.73 cm**-1
    88:    3031.68 cm**-1
    89:    3036.93 cm**-1
    90:    3093.41 cm**-1
    91:    3097.98 cm**-1
    92:    3140.33 cm**-1
    93:    3175.70 cm**-1
    94:    3177.52 cm**-1
    95:    3181.91 cm**-1
    96:    3187.51 cm**-1
    97:    3195.83 cm**-1
    98:    3197.15 cm**-1
    99:    3203.09 cm**-1
   100:    3214.55 cm**-1
   101:    3230.45 cm**-1

IR SPECTRUM
-----------

 Mode   freq       eps      Int      T**2         TX        TY        TZ
       cm**-1   L/(mol*cm) km/mol    a.u.
----------------------------------------------------------------------------
  6:     24.64   0.001007    5.09  0.012759  (-0.048677 -0.056691  0.084708)
  7:     27.23   0.000314    1.59  0.003597  (-0.030310 -0.049294  0.015765)
  8:     45.15   0.000868    4.39  0.005999  (-0.068374 -0.032478 -0.016406)
  9:     81.24   0.000235    1.19  0.000903  ( 0.002855 -0.003948 -0.029650)
 10:     88.36   0.001006    5.09  0.003554  (-0.011993 -0.035343  0.046484)
 11:    107.61   0.000704    3.56  0.002041  (-0.012754  0.032721 -0.028420)
 12:    111.07   0.000188    0.95  0.000527  (-0.016296 -0.011236  0.011620)
 13:    140.59   0.000069    0.35  0.000152  ( 0.009759  0.007452  0.001147)
 14:    179.81   0.000891    4.50  0.001546  (-0.028036  0.012295  0.024667)
 15:    202.58   0.000896    4.53  0.001381  ( 0.001046 -0.019702  0.031491)
 16:    213.45   0.002364   11.95  0.003456  (-0.042828  0.040243 -0.001540)
 17:    231.92   0.000573    2.90  0.000771  ( 0.013040  0.022028  0.010765)
 18:    242.36   0.001806    9.13  0.002326  ( 0.000702 -0.047091 -0.010386)
 19:    255.47   0.000270    1.36  0.000329  ( 0.005743  0.015599  0.007277)
 20:    341.47   0.001780    8.99  0.001626  ( 0.029165 -0.024861 -0.012561)
 21:    357.92   0.000037    0.19  0.000032  (-0.000222 -0.005550 -0.001285)
 22:    384.71   0.002918   14.75  0.002367  ( 0.035579 -0.029260 -0.015657)
 23:    400.59   0.001927    9.74  0.001501  (-0.023809  0.026939  0.014450)
 24:    442.70   0.001614    8.16  0.001138  ( 0.029537 -0.007432  0.014487)
 25:    458.14   0.000275    1.39  0.000187  ( 0.001158  0.007065  0.011654)
 26:    467.51   0.001739    8.79  0.001161  (-0.021768  0.021183 -0.015438)
 27:    490.31   0.002483   12.55  0.001580  (-0.034135  0.012333  0.016220)
 28:    501.80   0.000581    2.94  0.000361  ( 0.003813  0.018524  0.001884)
 29:    518.26   0.001283    6.49  0.000773  (-0.026825  0.001739  0.007087)
 30:    531.26   0.001380    6.97  0.000811  (-0.023430 -0.007740 -0.014207)
 31:    582.33   0.001444    7.30  0.000774  ( 0.027267  0.002292 -0.005025)
 32:    596.67   0.000794    4.01  0.000415  (-0.011989 -0.013474 -0.009474)
 33:    622.95   0.003330   16.83  0.001668  (-0.003566 -0.005705  0.040283)
 34:    656.62   0.007511   37.96  0.003570  (-0.006394 -0.046671  0.036750)
 35:    683.33   0.010375   52.43  0.004738  ( 0.022017 -0.061568  0.021514)
 36:    691.55   0.004620   23.35  0.002085  ( 0.023730 -0.001747 -0.038971)
 37:    702.13   0.001513    7.64  0.000672  (-0.007058  0.010708  0.022535)
 38:    737.88   0.003388   17.12  0.001433  (-0.028513 -0.023988 -0.006666)
 39:    739.08   0.012174   61.52  0.005140  ( 0.053468  0.013458 -0.045831)
 40:    775.78   0.014098   71.25  0.005671  (-0.033435 -0.004283  0.067342)
 41:    805.85   0.010546   53.29  0.004084  (-0.000022 -0.023321  0.059498)
 42:    810.99   0.003515   17.76  0.001353  ( 0.029967 -0.014877 -0.015273)
 43:    822.32   0.002964   14.98  0.001125  ( 0.007911 -0.032549  0.001621)
 44:    831.69   0.010329   52.20  0.003876  ( 0.036107 -0.048182  0.015820)
 45:    840.77   0.002625   13.27  0.000974  (-0.024681 -0.017839 -0.006856)
 46:    880.23   0.001234    6.24  0.000437  (-0.015467 -0.006052  0.012711)
 47:    912.24   0.000395    2.00  0.000135  ( 0.003433 -0.008460  0.007191)
 48:    925.76   0.000005    0.03  0.000002  ( 0.001255  0.000085  0.000358)
 49:    937.01   0.001526    7.71  0.000508  ( 0.001696 -0.020876  0.008348)
 50:    973.16   0.017532   88.60  0.005622  (-0.061281  0.043205 -0.000098)
 51:    985.67   0.013387   67.65  0.004238  ( 0.044719 -0.044985 -0.014660)
 52:   1014.66   0.033625  169.93  0.010341  (-0.055844  0.078607  0.032306)
 53:   1071.77   0.007060   35.68  0.002056  (-0.042237 -0.005274 -0.015620)
 54:   1082.68   0.044034  222.53  0.012692  ( 0.048877 -0.086458 -0.053180)
 55:   1083.74   0.004411   22.29  0.001270  (-0.028213  0.013966 -0.016711)
 56:   1101.01   0.020989  106.07  0.005949  ( 0.073657 -0.018297 -0.013740)
 57:   1116.12   0.184785  933.83  0.051666  (-0.149989  0.136221  0.103018)
 58:   1128.55   0.000507    2.56  0.000140  (-0.004417  0.001336  0.010908)
 59:   1134.32   0.001183    5.98  0.000325  (-0.012844  0.012632 -0.000934)
 60:   1172.86   0.007504   37.92  0.001997  ( 0.032013 -0.026179 -0.016921)
 61:   1181.48   0.001482    7.49  0.000391  ( 0.017955 -0.006524  0.005141)
 62:   1197.39   0.025329  128.00  0.006601  ( 0.068286 -0.037221 -0.023512)
 63:   1201.95   0.004493   22.71  0.001166  (-0.004492 -0.031755 -0.011745)
 64:   1253.91   0.031201  157.68  0.007765  ( 0.066493 -0.054854 -0.018300)
 65:   1255.31   0.007040   35.58  0.001750  (-0.034185  0.023496  0.005419)
 66:   1277.70   0.002611   13.19  0.000638  ( 0.000374 -0.024389 -0.006531)
 67:   1289.34   0.003765   19.03  0.000911  ( 0.011606 -0.017984 -0.021287)
 68:   1325.63   0.013443   67.94  0.003165  (-0.034359  0.037259  0.024412)
 69:   1365.69   0.006040   30.52  0.001380  ( 0.031213  0.015854  0.012431)
 70:   1377.72   0.003083   15.58  0.000698  ( 0.025869  0.001548  0.005158)
 71:   1406.98   0.024504  123.84  0.005435  ( 0.050146 -0.044888 -0.030091)
 72:   1416.88   0.032480  164.14  0.007154  ( 0.065896 -0.043570 -0.030216)
 73:   1427.69   0.001945    9.83  0.000425  ( 0.014799  0.010125  0.010175)
 74:   1444.22   0.000618    3.12  0.000133  ( 0.007246  0.006921  0.005751)
 75:   1449.23   0.001343    6.79  0.000289  (-0.009114  0.008814 -0.011331)
 76:   1454.97   0.009028   45.62  0.001936  (-0.034539  0.023753  0.013385)
 77:   1470.19   0.005850   29.56  0.001242  ( 0.017526 -0.014706  0.026802)
 78:   1490.25   0.000267    1.35  0.000056  ( 0.004996  0.002397  0.005011)
 79:   1501.08   0.006811   34.42  0.001416  (-0.027168 -0.025625 -0.004601)
 80:   1503.49   0.000835    4.22  0.000173  ( 0.005319 -0.007589  0.009355)
 81:   1504.20   0.003639   18.39  0.000755  (-0.023492  0.011810 -0.007981)
 82:   1514.41   0.000615    3.11  0.000127  (-0.008125 -0.007664  0.001370)
 83:   1534.37   0.020141  101.78  0.004096  (-0.047487  0.041428  0.011185)
 84:   1543.61   0.001078    5.45  0.000218  (-0.009834  0.010227  0.004067)
 85:   1553.50   0.004547   22.98  0.000913  (-0.026109 -0.012232 -0.009065)
 86:   1567.60   0.004552   23.00  0.000906  ( 0.002862 -0.022290 -0.020029)
 87:   1754.73   0.184531  932.54  0.032817  (-0.012721 -0.019918 -0.179607)
 88:   3031.68   0.008433   42.62  0.000868  (-0.006028  0.014792 -0.024756)
 89:   3036.93   0.023205  117.27  0.002384  (-0.033560  0.011992  0.033383)
 90:   3093.41   0.013968   70.59  0.001409  (-0.018717 -0.032366 -0.003346)
 91:   3097.98   0.004141   20.92  0.000417  ( 0.008005  0.017215  0.007527)
 92:   3140.33   0.005960   30.12  0.000592  (-0.005332  0.021312  0.010469)
 93:   3175.70   0.000879    4.44  0.000086  ( 0.002572  0.007401  0.005002)
 94:   3177.52   0.001666    8.42  0.000164  (-0.002884  0.001304 -0.012395)
 95:   3181.91   0.007213   36.45  0.000707  ( 0.013194 -0.020328 -0.010960)
 96:   3187.51   0.002553   12.90  0.000250  (-0.014998  0.004504  0.002175)
 97:   3195.83   0.003759   19.00  0.000367  (-0.018756  0.003806 -0.000904)
 98:   3197.15   0.006957   35.16  0.000679  (-0.015245 -0.017569 -0.011746)
 99:   3203.09   0.003025   15.29  0.000295  (-0.007233  0.013666  0.007460)
100:   3214.55   0.006297   31.82  0.000611  ( 0.004897  0.019109  0.014903)
101:   3230.45   0.002207   11.15  0.000213  ( 0.014298  0.002695  0.001231)

--------------------------
THERMOCHEMISTRY AT 298.15K
--------------------------

Temperature         ...   298.15 K
Pressure            ...     1.00 atm
Total Mass          ...   266.30 AMU
Quasi RRHO          ...     True
Cut-Off Frequency   ...     1.00 cm^-1

Throughout the following assumptions are being made:
  (1) The electronic state is orbitally nondegenerate
  (2) There are no thermally accessible electronically excited states
  (3) Hindered rotations indicated by low frequency modes are not
      treated as such but are treated as vibrations and this may
      cause some error
  (4) All equations used are the standard statistical mechanics
      equations for an ideal gas
  (5) All vibrations are strictly harmonic

freq.      24.64  E(vib)   ...       0.56
freq.      27.23  E(vib)   ...       0.55
freq.      45.15  E(vib)   ...       0.53
freq.      81.24  E(vib)   ...       0.48
freq.      88.36  E(vib)   ...       0.48
freq.     107.61  E(vib)   ...       0.45
freq.     111.07  E(vib)   ...       0.45
freq.     140.59  E(vib)   ...       0.41
freq.     179.81  E(vib)   ...       0.37
freq.     202.58  E(vib)   ...       0.35
freq.     213.45  E(vib)   ...       0.34
freq.     231.92  E(vib)   ...       0.32
freq.     242.36  E(vib)   ...       0.31
freq.     255.47  E(vib)   ...       0.30
freq.     341.47  E(vib)   ...       0.23
freq.     357.92  E(vib)   ...       0.22
freq.     384.71  E(vib)   ...       0.20
freq.     400.59  E(vib)   ...       0.19
freq.     442.70  E(vib)   ...       0.17
freq.     458.14  E(vib)   ...       0.16
freq.     467.51  E(vib)   ...       0.16
freq.     490.31  E(vib)   ...       0.15
freq.     501.80  E(vib)   ...       0.14
freq.     518.26  E(vib)   ...       0.13
freq.     531.26  E(vib)   ...       0.13
freq.     582.33  E(vib)   ...       0.11
freq.     596.67  E(vib)   ...       0.10
freq.     622.95  E(vib)   ...       0.09
freq.     656.62  E(vib)   ...       0.08
freq.     683.33  E(vib)   ...       0.08
freq.     691.55  E(vib)   ...       0.07
freq.     702.13  E(vib)   ...       0.07
freq.     737.88  E(vib)   ...       0.06
freq.     739.08  E(vib)   ...       0.06
freq.     775.78  E(vib)   ...       0.05
freq.     805.85  E(vib)   ...       0.05
freq.     810.99  E(vib)   ...       0.05
freq.     822.32  E(vib)   ...       0.05
freq.     831.69  E(vib)   ...       0.04
freq.     840.77  E(vib)   ...       0.04
freq.     880.23  E(vib)   ...       0.04
freq.     912.24  E(vib)   ...       0.03
freq.     925.76  E(vib)   ...       0.03
freq.     937.01  E(vib)   ...       0.03
freq.     973.16  E(vib)   ...       0.03
freq.     985.67  E(vib)   ...       0.02
freq.    1014.66  E(vib)   ...       0.02
freq.    1071.77  E(vib)   ...       0.02
freq.    1082.68  E(vib)   ...       0.02
freq.    1083.74  E(vib)   ...       0.02
freq.    1101.01  E(vib)   ...       0.02
freq.    1116.12  E(vib)   ...       0.01
freq.    1128.55  E(vib)   ...       0.01
freq.    1134.32  E(vib)   ...       0.01
freq.    1172.86  E(vib)   ...       0.01
freq.    1181.48  E(vib)   ...       0.01
freq.    1197.39  E(vib)   ...       0.01
freq.    1201.95  E(vib)   ...       0.01
freq.    1253.91  E(vib)   ...       0.01
freq.    1255.31  E(vib)   ...       0.01
freq.    1277.70  E(vib)   ...       0.01
freq.    1289.34  E(vib)   ...       0.01
freq.    1325.63  E(vib)   ...       0.01
freq.    1365.69  E(vib)   ...       0.01
freq.    1377.72  E(vib)   ...       0.01
freq.    1406.98  E(vib)   ...       0.00
freq.    1416.88  E(vib)   ...       0.00
freq.    1427.69  E(vib)   ...       0.00
freq.    1444.22  E(vib)   ...       0.00
freq.    1449.23  E(vib)   ...       0.00
freq.    1454.97  E(vib)   ...       0.00
freq.    1470.19  E(vib)   ...       0.00
freq.    1490.25  E(vib)   ...       0.00
freq.    1501.08  E(vib)   ...       0.00
freq.    1503.49  E(vib)   ...       0.00
freq.    1504.20  E(vib)   ...       0.00
freq.    1514.41  E(vib)   ...       0.00
freq.    1534.37  E(vib)   ...       0.00
freq.    1543.61  E(vib)   ...       0.00
freq.    1553.50  E(vib)   ...       0.00
freq.    1567.60  E(vib)   ...       0.00
freq.    1754.73  E(vib)   ...       0.00
freq.    3031.68  E(vib)   ...       0.00
freq.    3036.93  E(vib)   ...       0.00
freq.    3093.41  E(vib)   ...       0.00
freq.    3097.98  E(vib)   ...       0.00
freq.    3140.33  E(vib)   ...       0.00
freq.    3175.70  E(vib)   ...       0.00
freq.    3177.52  E(vib)   ...       0.00
freq.    3181.91  E(vib)   ...       0.00
freq.    3187.51  E(vib)   ...       0.00
freq.    3195.83  E(vib)   ...       0.00
freq.    3197.15  E(vib)   ...       0.00
freq.    3203.09  E(vib)   ...       0.00
freq.    3214.55  E(vib)   ...       0.00
freq.    3230.45  E(vib)   ...       0.00

------------
INNER ENERGY
------------

The inner energy is: U= E(el) + E(ZPE) + E(vib) + E(rot) + E(trans)
    E(el)   - is the total energy from the electronic structure calculation
              = E(kin-el) + E(nuc-el) + E(el-el) + E(nuc-nuc)
    E(ZPE)  - the the zero temperature vibrational energy from the frequency calculation
    E(vib)  - the the finite temperature correction to E(ZPE) due to population
              of excited vibrational states
    E(rot)  - is the rotational thermal energy
    E(trans)- is the translational thermal energy

Summary of contributions to the inner energy U:
Electronic energy                ...   -878.19013926 Eh
Zero point energy                ...      0.26356903 Eh     165.39 kcal/mol
Thermal vibrational correction   ...      0.01474854 Eh       9.25 kcal/mol
Thermal rotational correction    ...      0.00141627 Eh       0.89 kcal/mol
Thermal translational correction ...      0.00141627 Eh       0.89 kcal/mol
-----------------------------------------------------------------------
Total thermal energy                   -877.90898915 Eh

Summary of corrections to the electronic energy:
(perhaps to be used in another calculation)
Total thermal correction                  0.01758109 Eh      11.03 kcal/mol
Non-thermal (ZPE) correction              0.26356903 Eh     165.39 kcal/mol
-----------------------------------------------------------------------
Total correction                          0.28115011 Eh     176.42 kcal/mol

--------
ENTHALPY
--------

The enthalpy is H = U + kB*T
                kB is Boltzmann's constant
Total thermal energy              ...   -877.90898915 Eh
Thermal Enthalpy correction       ...      0.00094421 Eh       0.59 kcal/mol
-----------------------------------------------------------------------
Total Enthalpy                    ...   -877.90804494 Eh

Note: Only C1 symmetry has been detected, increase convergence thresholds
      if your molecule has a higher symmetry. Symmetry factor of 1.0 is

Rotational constants in cm-1:     0.016813     0.009573     0.006452

                             ****ORCA TERMINATED NORMALLY****
TOTAL RUN TIME: 1 days 3 hours 2 minutes 7 seconds 864 msec
