                         Program Version 5.0.4 -  RELEASE  -
|  1> ! B3LYP/G OPT Def2-TZVP(-f) Def2-TZVP/C Def2/J RIJCOSX TightSCF CPCM(Water) AllPop SOSCF
|  2> %maxcore 3000
|  3> %tddft
|  4>     NRoots 3
|  5>     IRoot 1
|  6> end
|  7>
|  8> * xyz 1 1
|  9>    C       -6.61766       -1.50485        0.05143
| 10>    C       -6.64071       -2.71913       -0.85416
| 11>    C       -5.61981       -3.73441       -0.36295
| 12>    H       -6.41557       -2.41815       -1.87992
| 13>    H       -7.64539       -3.14076       -0.84450
| 14>    C       -4.26611       -3.10074       -0.22826
| 15>    H       -5.55492       -4.59502       -1.02817
| 16>    H       -5.92885       -4.11226        0.61848
| 17>    C       -4.15413       -1.68851        0.07640
| 18>    N       -5.26367       -0.94736        0.20927
| 19>    H       -6.98681       -1.75444        1.05182
| 20>    H       -7.24190       -0.70460       -0.34061
| 21>    C       -5.20857        0.45743        0.64611
| 22>    C       -3.96417        1.15202        0.13153
| 23>    H       -5.23819        0.46405        1.74048
| 24>    H       -6.11264        0.93997        0.28424
| 25>    C       -2.72565        0.38227        0.56632
| 26>    H       -3.94138        2.16816        0.52386
| 27>    H       -4.00866        1.21702       -0.95782
| 28>    C       -2.86524       -1.08053        0.25522
| 29>    H       -2.57367        0.49955        1.64515
| 30>    H       -1.83235        0.77578        0.08359
| 31>    C       -3.12380       -3.83450       -0.35744
| 32>    C       -1.76104       -1.89047        0.13516
| 33>    C       -1.84744       -3.26212       -0.17889
| 34>    O       -0.53924       -1.31160        0.32781
| 35>    C        0.64784       -2.00508        0.22068
| 36>    C       -0.64499       -4.00638       -0.30292
| 37>    C        0.56996       -3.42785       -0.12185
| 38>    O        1.66369       -1.37986        0.41275
| 39>    C        1.83767       -4.19173       -0.24401
| 40>    C        2.48593       -4.68290        0.92107
| 41>    C        2.35730       -4.42584       -1.48156
| 42>    N        3.53977       -5.13767       -1.61575
| 43>    C        4.20055       -5.63271       -0.49648
| 44>    C        3.68959       -5.41394        0.74250
| 45>    H        1.90347       -4.07511       -2.39447
| 46>    H        4.22002       -5.80841        1.59814
| 47>    H        5.10981       -6.17933       -0.68662
| 48>    H        2.07455       -4.50718        1.90136
| 49>    H       -3.18750       -4.88926       -0.59271
| 50>    H       -0.71043       -5.05918       -0.54824
| 51>    H        3.90651       -5.31875       -2.53313
| 52> *
| 53>
| 54>
| 55>                          ****END OF INPUT****
 Total Charge           Charge          ....    1
 Multiplicity           Mult            ....    1
 Number of Electrons    NEL             ....  168
FINAL SINGLE POINT ENERGY     -1033.697338930328
                    ***********************HURRAY********************

CARTESIAN COORDINATES (ANGSTROEM)
---------------------------------
  C     -6.617690   -1.504884    0.051465
  C     -6.640663   -2.718936   -0.854417
  C     -5.619790   -3.734351   -0.363445
  H     -6.415548   -2.417712   -1.880107
  H     -7.645351   -3.140567   -0.844846
  C     -4.266106   -3.100662   -0.228479
  H     -5.554810   -4.594760   -1.028914
  H     -5.928872   -4.112523    0.617840
  C     -4.154175   -1.688493    0.076374
  N     -5.263707   -0.947452    0.209659
  H     -6.987008   -1.754676    1.051735
  H     -7.241832   -0.704499   -0.340456
  C     -5.208539    0.457257    0.646770
  C     -3.964378    1.151999    0.131827
  H     -5.237739    0.463653    1.741145
  H     -6.112799    0.939782    0.285355
  C     -2.725649    0.382326    0.566174
  H     -3.941589    2.168113    0.524223
  H     -4.009240    1.217095   -0.957500
  C     -2.865265   -1.080505    0.255113
  H     -2.573277    0.499665    1.644932
  H     -1.832524    0.775851    0.083128
  C     -3.123804   -3.834437   -0.357575
  C     -1.761040   -1.890386    0.135012
  C     -1.847434   -3.262071   -0.178929
  O     -0.539245   -1.311514    0.327599
  C      0.647830   -2.004957    0.220281
  C     -0.644988   -4.006385   -0.302823
  C      0.569941   -3.427803   -0.121943
  O      1.663706   -1.379671    0.412009
  C      1.837729   -4.191707   -0.244024
  C      2.486126   -4.682470    0.921186
  C      2.357196   -4.426240   -1.481535
  N      3.539608   -5.138349   -1.615522
  C      4.200454   -5.632965   -0.496312
  C      3.689813   -5.413640    0.742693
  H      1.903263   -4.076032   -2.394592
  H      4.220523   -5.807727    1.598337
  H      5.109885   -6.179385   -0.686243
  H      2.074895   -4.506284    1.901454
  H     -3.187516   -4.889175   -0.592928
  H     -0.710433   -5.059241   -0.547893
  H      3.906209   -5.319664   -2.532919

 Multiplicity           Mult            ....    1
 Number of Electrons    NEL             ....  168
 Basis Dimension        Dim             ....  690

ORBITAL ENERGIES
----------------

  NO   OCC          E(Eh)            E(eV)
   0   2.0000     -19.199405      -522.4424
   1   2.0000     -19.117967      -520.2263
   2   2.0000     -14.439389      -392.9158
   3   2.0000     -14.348102      -390.4317
   4   2.0000     -10.313692      -280.6498
   5   2.0000     -10.271315      -279.4967
   6   2.0000     -10.271226      -279.4943
   7   2.0000     -10.248218      -278.8682
   8   2.0000     -10.242907      -278.7237
   9   2.0000     -10.236369      -278.5458
  10   2.0000     -10.232709      -278.4462
  11   2.0000     -10.224101      -278.2119
  12   2.0000     -10.208221      -277.7798
  13   2.0000     -10.204986      -277.6918
  14   2.0000     -10.204379      -277.6753
  15   2.0000     -10.201036      -277.5843
  16   2.0000     -10.185593      -277.1641
  17   2.0000     -10.182468      -277.0791
  18   2.0000     -10.182455      -277.0787
  19   2.0000     -10.180398      -277.0227
  20   2.0000     -10.174457      -276.8610
  21   2.0000     -10.172849      -276.8173
  22   2.0000     -10.171163      -276.7714
  23   2.0000     -10.171073      -276.7690
  24   2.0000      -1.128332       -30.7035
  25   2.0000      -1.042813       -28.3764
  26   2.0000      -1.024525       -27.8787
  27   2.0000      -0.973377       -26.4869
  28   2.0000      -0.879612       -23.9355
  29   2.0000      -0.865145       -23.5418
  30   2.0000      -0.839538       -22.8450
  31   2.0000      -0.831419       -22.6241
  32   2.0000      -0.813495       -22.1363
  33   2.0000      -0.781565       -21.2675
  34   2.0000      -0.768558       -20.9135
  35   2.0000      -0.760889       -20.7049
  36   2.0000      -0.704709       -19.1761
  37   2.0000      -0.700138       -19.0517
  38   2.0000      -0.692840       -18.8531
  39   2.0000      -0.669578       -18.2201
  40   2.0000      -0.658935       -17.9305
  41   2.0000      -0.639758       -17.4087
  42   2.0000      -0.632036       -17.1986
  43   2.0000      -0.618951       -16.8425
  44   2.0000      -0.598649       -16.2901
  45   2.0000      -0.566015       -15.4021
  46   2.0000      -0.544073       -14.8050
  47   2.0000      -0.542763       -14.7693
  48   2.0000      -0.537857       -14.6358
  49   2.0000      -0.531518       -14.4633
  50   2.0000      -0.518857       -14.1188
  51   2.0000      -0.498662       -13.5693
  52   2.0000      -0.489667       -13.3245
  53   2.0000      -0.484365       -13.1803
  54   2.0000      -0.478771       -13.0280
  55   2.0000      -0.474433       -12.9100
  56   2.0000      -0.466636       -12.6978
  57   2.0000      -0.462736       -12.5917
  58   2.0000      -0.458664       -12.4809
  59   2.0000      -0.447090       -12.1659
  60   2.0000      -0.444723       -12.1015
  61   2.0000      -0.436565       -11.8795
  62   2.0000      -0.431602       -11.7445
  63   2.0000      -0.423239       -11.5169
  64   2.0000      -0.421205       -11.4616
  65   2.0000      -0.412160       -11.2154
  66   2.0000      -0.410205       -11.1622
  67   2.0000      -0.405893       -11.0449
  68   2.0000      -0.397579       -10.8187
  69   2.0000      -0.381983       -10.3943
  70   2.0000      -0.369313       -10.0495
  71   2.0000      -0.362186        -9.8556
  72   2.0000      -0.354987        -9.6597
  73   2.0000      -0.346335        -9.4242
  74   2.0000      -0.345070        -9.3898
  75   2.0000      -0.341034        -9.2800
  76   2.0000      -0.338031        -9.1983
  77   2.0000      -0.324714        -8.8359
  78   2.0000      -0.320547        -8.7225
  79   2.0000      -0.315076        -8.5736
  80   2.0000      -0.297438        -8.0937
  81   2.0000      -0.276999        -7.5375
  82   2.0000      -0.243074        -6.6144
  83   2.0000      -0.193961        -5.2780
  84   0.0000      -0.108246        -2.9455
  85   0.0000      -0.064874        -1.7653
  86   0.0000      -0.056155        -1.5280
  87   0.0000      -0.012516        -0.3406
  88   0.0000      -0.000964        -0.0262

MULLIKEN ATOMIC CHARGES
-----------------------
   0 C :   -0.119928
   1 C :   -0.163886
   2 C :   -0.230181
   3 H :    0.104989
   4 H :    0.117735
   5 C :    0.244209
   6 H :    0.126893
   7 H :    0.110694
   8 C :   -0.006061
   9 N :   -0.133319
  10 H :    0.112475
  11 H :    0.132595
  12 C :   -0.122961
  13 C :   -0.150035
  14 H :    0.112473
  15 H :    0.135992
  16 C :   -0.277744
  17 H :    0.117484
  18 H :    0.105187
  19 C :    0.107306
  20 H :    0.113560
  21 H :    0.126925
  22 C :   -0.538808
  23 C :    0.081405
  24 C :    0.459300
  25 O :   -0.382193
  26 C :    0.439542
  27 C :   -0.326431
  28 C :    0.117415
  29 O :   -0.560334
  30 C :    0.251787
  31 C :   -0.149149
  32 C :   -0.013129
  33 N :   -0.195575
  34 C :    0.087011
  35 C :   -0.027795
  36 H :    0.191277
  37 H :    0.156288
  38 H :    0.190993
  39 H :    0.168898
  40 H :    0.089625
  41 H :    0.130384
  42 H :    0.265088
Sum of atomic charges:    1.0000000

LOEWDIN ATOMIC CHARGES
----------------------
   0 C :   -0.181763
   1 C :   -0.217442
   2 C :   -0.187377
   3 H :    0.130559
   4 H :    0.132665
   5 C :   -0.110554
   6 H :    0.136499
   7 H :    0.138761
   8 C :   -0.067098
   9 N :    0.132667
  10 H :    0.126781
  11 H :    0.130320
  12 C :   -0.178365
  13 C :   -0.216313
  14 H :    0.127409
  15 H :    0.130713
  16 C :   -0.188672
  17 H :    0.132535
  18 H :    0.130957
  19 C :   -0.093324
  20 H :    0.138840
  21 H :    0.135885
  22 C :   -0.070312
  23 C :   -0.096990
  24 C :   -0.128517
  25 O :    0.223028
  26 C :   -0.256643
  27 C :   -0.016117
  28 C :   -0.110660
  29 O :   -0.065034
  30 C :   -0.082568
  31 C :    0.032441
  32 C :    0.006736
  33 N :    0.208858
  34 C :   -0.030578
  35 C :   -0.083572
  36 H :    0.166712
  37 H :    0.162711
  38 H :    0.162258
  39 H :    0.162385
  40 H :    0.149234
  41 H :    0.158425
  42 H :    0.224519

  Mayer bond orders larger than 0.100000
B(  0-C ,  1-C ) :   1.0096 B(  0-C ,  9-N ) :   0.9330 B(  0-C , 10-H ) :   0.9511
B(  0-C , 11-H ) :   0.9508 B(  1-C ,  2-C ) :   1.0165 B(  1-C ,  3-H ) :   0.9683
B(  1-C ,  4-H ) :   0.9593 B(  2-C ,  5-C ) :   0.9944 B(  2-C ,  6-H ) :   0.9559
B(  2-C ,  7-H ) :   0.9468 B(  5-C ,  8-C ) :   1.2268 B(  5-C , 22-C ) :   1.4003
B(  8-C ,  9-N ) :   1.3989 B(  8-C , 19-C ) :   1.2295 B(  9-N , 12-C ) :   0.9344
B( 12-C , 13-C ) :   0.9988 B( 12-C , 14-H ) :   0.9521 B( 12-C , 15-H ) :   0.9531
B( 13-C , 16-C ) :   1.0344 B( 13-C , 17-H ) :   0.9622 B( 13-C , 18-H ) :   0.9668
B( 16-C , 19-C ) :   1.0340 B( 16-C , 20-H ) :   0.9560 B( 16-C , 21-H ) :   0.9474
B( 19-C , 23-C ) :   1.3572 B( 22-C , 24-C ) :   1.0988 B( 22-C , 40-H ) :   1.0535
B( 23-C , 24-C ) :   1.3412 B( 23-C , 25-O ) :   1.0195 B( 24-C , 27-C ) :   1.1189
B( 25-O , 26-C ) :   1.0901 B( 26-C , 28-C ) :   1.1081 B( 26-C , 29-O ) :   1.9634
B( 27-C , 28-C ) :   1.4877 B( 27-C , 41-H ) :   0.9915 B( 28-C , 30-C ) :   0.9068
B( 30-C , 31-C ) :   1.3954 B( 30-C , 32-C ) :   1.4801 B( 31-C , 33-N ) :   0.1132
B( 31-C , 35-C ) :   1.3925 B( 31-C , 39-H ) :   0.9516 B( 32-C , 33-N ) :   1.3081
B( 32-C , 36-H ) :   0.9265 B( 33-N , 34-C ) :   1.2959 B( 33-N , 42-H ) :   0.8947
B( 34-C , 35-C ) :   1.4998 B( 34-C , 38-H ) :   0.9314 B( 35-C , 37-H ) :   0.9500

-----------------------------------------------------------------------------
         ABSORPTION SPECTRUM VIA TRANSITION ELECTRIC DIPOLE MOMENTS
-----------------------------------------------------------------------------
State   Energy    Wavelength  fosc         T2        TX        TY        TZ
        (cm-1)      (nm)                 (au**2)    (au)      (au)      (au)
-----------------------------------------------------------------------------
   1   14825.2    674.5   0.016156479   0.35877   0.57061  -0.18018   0.02665
   2   25599.1    390.6   0.672120039   8.64367   2.86218  -0.66904  -0.06331
   3   25892.8    386.2   0.079865074   1.01544  -0.99653   0.14953  -0.00199

FINAL SINGLE POINT ENERGY     -1033.697340220612

DIPOLE MOMENT
-------------
                                X             Y             Z
Electronic contribution:     14.93721      -2.73414      -0.10337
Nuclear contribution   :    -21.27317       2.79300      -1.04367
                        -----------------------------------------
Total Dipole Moment    :     -6.33596       0.05887      -1.14704
                        -----------------------------------------
Magnitude (a.u.)       :      6.43922
Magnitude (Debye)      :     16.36721

Rotational constants in cm-1:     0.021241     0.003864     0.003411
Rotational constants in MHz :   636.791889   115.845556   102.261387

                             ****ORCA TERMINATED NORMALLY****
TOTAL RUN TIME: 0 days 1 hours 9 minutes 22 seconds 46 msec
