                         Program Version 5.0.4 -  RELEASE  -
|  1> ! B3LYP/G FREQ Def2-TZVP(-f) Def2-TZVP/C Def2/J RIJCOSX TightSCF CPCM(Water) AllPop SOSCF
|  2> %maxcore 3000
|  3> %tddft
|  4>     NRoots 5
|  5>     IRoot 1
|  6> end
|  7>
|  8> * xyz 0 1
|  9>   C   -6.56158123625696     -1.48119619033453     -0.14330629272972
| 10>   C   -6.53799054812605     -2.59280445360835     -1.17814081077231
| 11>   C   -5.56488928199190     -3.67780870280229     -0.73465077018323
| 12>   H   -6.23591109125885     -2.18302965453777     -2.14550550008738
| 13>   H   -7.54591465009978     -2.99425998208802     -1.28865320266025
| 14>   C   -4.21950617567578     -3.09144431684412     -0.39293759754157
| 15>   H   -5.44609278599897     -4.43922050041694     -1.50718462150461
| 16>   H   -5.97276392180609     -4.18716633877340      0.14627222217038
| 17>   C   -4.11421284322847     -1.72973008399726      0.03305364593231
| 18>   N   -5.22926790007395     -0.93875651119412      0.10322618639046
| 19>   H   -6.97582759571070     -1.85909707691845      0.80372879071618
| 20>   H   -7.19497246765664     -0.65459882831025     -0.46472890731671
| 21>   C   -5.17302039128788      0.39683454240174      0.68641402378405
| 22>   C   -3.86424197170252      1.09157074253155      0.35622949429498
| 23>   H   -5.29477399096886      0.31998810811496      1.77761239828010
| 24>   H   -6.02521649935718      0.95714410801838      0.30379979168223
| 25>   C   -2.69118605551432      0.24119756794506      0.82673771872227
| 26>   H   -3.84707719970196      2.06889146588906      0.83951670787675
| 27>   H   -3.80483930787859      1.25443960938839     -0.72279464377081
| 28>   C   -2.83670655647521     -1.18889878853875      0.37899319423064
| 29>   H   -2.63199178903666      0.26946801695638      1.92120656210156
| 30>   H   -1.74855602606259      0.64710384736915      0.46078933894439
| 31>   C   -3.07793399687407     -3.85567218319136     -0.47759232831121
| 32>   C   -1.73244473680217     -2.02093831690175      0.29773004252760
| 33>   C   -1.79918167421237     -3.35722130602123     -0.13536769115483
| 34>   O   -0.52502259161304     -1.47721495724992      0.66469131957331
| 35>   C   0.67956576932772     -2.18008413214011      0.59720060563461
| 36>   C   -0.60339054465163     -4.12012552135440     -0.20256405573909
| 37>   C   0.64185743784514     -3.55646471395371      0.14949583485797
| 38>   O   1.65786795095007     -1.51755268308299      0.91736984805608
| 39>   C   1.87119041238023     -4.31566087316578      0.04645579834235
| 40>   C   3.07752358497213     -3.99763678863633      0.71543170181726
| 41>   C   1.91451881493511     -5.49237077036442     -0.75338437725169
| 42>   N   2.98126480789342     -6.26912781254528     -0.90338731548739
| 43>   C   4.10337027210935     -5.93869112264697     -0.24907547601803
| 44>   C   4.18372543486746     -4.80979531304105      0.56605787767279
| 45>   H   1.04216767336901     -5.78782266467474     -1.32287677582417
| 46>   H   5.10626676166292     -4.58071303618696      1.08424637250749
| 47>   H   4.95672155379938     -6.59460550868661     -0.38023227140347
| 48>   H   3.12477351335729     -3.12975955208128      1.35244857311052
| 49>   H   -3.15601423671858     -4.88321893258259     -0.81353134367906
| 50>   H   -0.67896592072739     -5.15930039174288     -0.48233406779075
| 51> *
| 52>
| 53>
| 54>                          ****END OF INPUT****

CARTESIAN COORDINATES (ANGSTROEM)
---------------------------------
  C     -6.561581   -1.481196   -0.143306
  C     -6.537991   -2.592804   -1.178141
  C     -5.564889   -3.677809   -0.734651
  H     -6.235911   -2.183030   -2.145506
  H     -7.545915   -2.994260   -1.288653
  C     -4.219506   -3.091444   -0.392938
  H     -5.446093   -4.439221   -1.507185
  H     -5.972764   -4.187166    0.146272
  C     -4.114213   -1.729730    0.033054
  N     -5.229268   -0.938757    0.103226
  H     -6.975828   -1.859097    0.803729
  H     -7.194972   -0.654599   -0.464729
  C     -5.173020    0.396835    0.686414
  C     -3.864242    1.091571    0.356229
  H     -5.294774    0.319988    1.777612
  H     -6.025216    0.957144    0.303800
  C     -2.691186    0.241198    0.826738
  H     -3.847077    2.068891    0.839517
  H     -3.804839    1.254440   -0.722795
  C     -2.836707   -1.188899    0.378993
  H     -2.631992    0.269468    1.921207
  H     -1.748556    0.647104    0.460789
  C     -3.077934   -3.855672   -0.477592
  C     -1.732445   -2.020938    0.297730
  C     -1.799182   -3.357221   -0.135368
  O     -0.525023   -1.477215    0.664691
  C      0.679566   -2.180084    0.597201
  C     -0.603391   -4.120126   -0.202564
  C      0.641857   -3.556465    0.149496
  O      1.657868   -1.517553    0.917370
  C      1.871190   -4.315661    0.046456
  C      3.077524   -3.997637    0.715432
  C      1.914519   -5.492371   -0.753384
  N      2.981265   -6.269128   -0.903387
  C      4.103370   -5.938691   -0.249075
  C      4.183725   -4.809795    0.566058
  H      1.042168   -5.787823   -1.322877
  H      5.106267   -4.580713    1.084246
  H      4.956722   -6.594606   -0.380232
  H      3.124774   -3.129760    1.352449
  H     -3.156014   -4.883219   -0.813531
  H     -0.678966   -5.159300   -0.482334

 Total Charge           Charge          ....    0
 Multiplicity           Mult            ....    1
 Number of Electrons    NEL             ....  168
 Basis Dimension        Dim             ....  684

ORBITAL ENERGIES
----------------

  NO   OCC          E(Eh)            E(eV)
   0   2.0000     -19.194401      -522.3062
   1   2.0000     -19.113431      -520.1029
   2   2.0000     -14.347605      -390.4182
   3   2.0000     -14.321177      -389.6990
   4   2.0000     -10.310150      -280.5535
   5   2.0000     -10.248411      -278.8734
   6   2.0000     -10.232821      -278.4492
   7   2.0000     -10.211404      -277.8664
   8   2.0000     -10.210488      -277.8415
   9   2.0000     -10.206837      -277.7421
  10   2.0000     -10.203542      -277.6525
  11   2.0000     -10.203287      -277.6456
  12   2.0000     -10.201853      -277.6065
  13   2.0000     -10.201368      -277.5933
  14   2.0000     -10.189670      -277.2750
  15   2.0000     -10.187003      -277.2024
  16   2.0000     -10.185022      -277.1485
  17   2.0000     -10.184594      -277.1369
  18   2.0000     -10.183003      -277.0936
  19   2.0000     -10.181116      -277.0422
  20   2.0000     -10.173939      -276.8470
  21   2.0000     -10.173082      -276.8236
  22   2.0000     -10.170303      -276.7480
  23   2.0000     -10.170143      -276.7437
  24   2.0000      -1.117317       -30.4037
  25   2.0000      -1.030480       -28.0408
  26   2.0000      -0.970212       -26.4008
  27   2.0000      -0.949514       -25.8376
  28   2.0000      -0.869727       -23.6665
  29   2.0000      -0.843885       -22.9633
  30   2.0000      -0.829140       -22.5620
  31   2.0000      -0.804332       -21.8870
  32   2.0000      -0.782346       -21.2887
  33   2.0000      -0.774262       -21.0687
  34   2.0000      -0.764879       -20.8134
  35   2.0000      -0.744674       -20.2636
  36   2.0000      -0.692991       -18.8572
  37   2.0000      -0.684887       -18.6367
  38   2.0000      -0.663039       -18.0422
  39   2.0000      -0.643932       -17.5223
  40   2.0000      -0.639242       -17.3947
  41   2.0000      -0.631167       -17.1749
  42   2.0000      -0.617773       -16.8105
  43   2.0000      -0.598555       -16.2875
  44   2.0000      -0.565114       -15.3775
  45   2.0000      -0.539836       -14.6897
  46   2.0000      -0.533319       -14.5123
  47   2.0000      -0.528442       -14.3796
  48   2.0000      -0.511092       -13.9075
  49   2.0000      -0.495803       -13.4915
  50   2.0000      -0.484259       -13.1774
  51   2.0000      -0.478957       -13.0331
  52   2.0000      -0.475355       -12.9351
  53   2.0000      -0.472192       -12.8490
  54   2.0000      -0.465845       -12.6763
  55   2.0000      -0.454056       -12.3555
  56   2.0000      -0.449932       -12.2433
  57   2.0000      -0.438478       -11.9316
  58   2.0000      -0.434426       -11.8213
  59   2.0000      -0.432380       -11.7657
  60   2.0000      -0.423786       -11.5318
  61   2.0000      -0.418692       -11.3932
  62   2.0000      -0.410724       -11.1764
  63   2.0000      -0.408245       -11.1089
  64   2.0000      -0.406093       -11.0504
  65   2.0000      -0.402264       -10.9462
  66   2.0000      -0.399538       -10.8720
  67   2.0000      -0.379546       -10.3280
  68   2.0000      -0.372744       -10.1429
  69   2.0000      -0.365514        -9.9461
  70   2.0000      -0.361230        -9.8296
  71   2.0000      -0.353906        -9.6303
  72   2.0000      -0.345275        -9.3954
  73   2.0000      -0.342899        -9.3308
  74   2.0000      -0.338589        -9.2135
  75   2.0000      -0.324869        -8.8401
  76   2.0000      -0.320864        -8.7311
  77   2.0000      -0.302173        -8.2225
  78   2.0000      -0.293336        -7.9821
  79   2.0000      -0.285356        -7.7649
  80   2.0000      -0.267395        -7.2762
  81   2.0000      -0.248848        -6.7715
  82   2.0000      -0.240278        -6.5383
  83   2.0000      -0.193327        -5.2607
  84   0.0000      -0.080740        -2.1970
  85   0.0000      -0.036840        -1.0025
  86   0.0000      -0.025480        -0.6933
  87   0.0000      -0.010380        -0.2824
  88   0.0000       0.003820         0.1039

MULLIKEN ATOMIC CHARGES
-----------------------
   0 C :   -0.113894
   1 C :   -0.163399
   2 C :   -0.234007
   3 H :    0.102733
   4 H :    0.117821
   5 C :    0.240930
   6 H :    0.127265
   7 H :    0.112259
   8 C :    0.000807
   9 N :   -0.138089
  10 H :    0.106487
  11 H :    0.132610
  12 C :   -0.115644
  13 C :   -0.151627
  14 H :    0.106842
  15 H :    0.134413
  16 C :   -0.275443
  17 H :    0.117625
  18 H :    0.103082
  19 C :    0.098906
  20 H :    0.113395
  21 H :    0.127180
  22 C :   -0.553010
  23 C :    0.093026
  24 C :    0.424768
  25 O :   -0.369999
  26 C :    0.422642
  27 C :   -0.287641
  28 C :    0.173751
  29 O :   -0.574653
  30 C :    0.146878
  31 C :   -0.196447
  32 C :   -0.033484
  33 N :   -0.501367
  34 C :    0.063959
  35 C :   -0.073847
  36 H :    0.118915
  37 H :    0.115483
  38 H :    0.123460
  39 H :    0.130299
  40 H :    0.091982
  41 H :    0.135035
Sum of atomic charges:   -0.0000000

LOEWDIN ATOMIC CHARGES
----------------------
   0 C :   -0.189392
   1 C :   -0.217521
   2 C :   -0.187042
   3 H :    0.129708
   4 H :    0.131779
   5 C :   -0.107733
   6 H :    0.136814
   7 H :    0.138040
   8 C :   -0.063700
   9 N :    0.126809
  10 H :    0.125998
  11 H :    0.130367
  12 C :   -0.187999
  13 C :   -0.216440
  14 H :    0.126561
  15 H :    0.130825
  16 C :   -0.189053
  17 H :    0.131993
  18 H :    0.130071
  19 C :   -0.088814
  20 H :    0.138564
  21 H :    0.135760
  22 C :   -0.063394
  23 C :   -0.091446
  24 C :   -0.132058
  25 O :    0.208224
  26 C :   -0.236638
  27 C :   -0.001205
  28 C :   -0.108255
  29 O :   -0.079019
  30 C :   -0.102522
  31 C :   -0.074810
  32 C :   -0.128779
  33 N :   -0.001707
  34 C :   -0.169792
  35 C :   -0.137354
  36 H :    0.133465
  37 H :    0.143299
  38 H :    0.130401
  39 H :    0.144469
  40 H :    0.149003
  41 H :    0.152523

  Mayer bond orders larger than 0.100000
B(  0-C ,  1-C ) :   1.0026 B(  0-C ,  9-N ) :   0.9492 B(  0-C , 10-H ) :   0.9482
B(  0-C , 11-H ) :   0.9506 B(  1-C ,  2-C ) :   1.0237 B(  1-C ,  3-H ) :   0.9680
B(  1-C ,  4-H ) :   0.9605 B(  2-C ,  5-C ) :   0.9975 B(  2-C ,  6-H ) :   0.9552
B(  2-C ,  7-H ) :   0.9465 B(  5-C ,  8-C ) :   1.2384 B(  5-C , 22-C ) :   1.3904
B(  8-C ,  9-N ) :   1.3599 B(  8-C , 19-C ) :   1.2469 B(  9-N , 12-C ) :   0.9480
B( 12-C , 13-C ) :   0.9984 B( 12-C , 14-H ) :   0.9483 B( 12-C , 15-H ) :   0.9518
B( 13-C , 16-C ) :   1.0344 B( 13-C , 17-H ) :   0.9627 B( 13-C , 18-H ) :   0.9666
B( 16-C , 19-C ) :   1.0343 B( 16-C , 20-H ) :   0.9545 B( 16-C , 21-H ) :   0.9476
B( 19-C , 23-C ) :   1.3400 B( 22-C , 24-C ) :   1.0915 B( 22-C , 40-H ) :   1.0509
B( 23-C , 24-C ) :   1.3391 B( 23-C , 25-O ) :   1.0206 B( 24-C , 27-C ) :   1.1769
B( 25-O , 26-C ) :   1.0898 B( 26-C , 28-C ) :   1.1383 B( 26-C , 29-O ) :   1.8791
B( 27-C , 28-C ) :   1.3575 B( 27-C , 41-H ) :   0.9628 B( 28-C , 30-C ) :   0.9930
B( 30-C , 31-C ) :   1.3956 B( 30-C , 32-C ) :   1.3626 B( 31-C , 35-C ) :   1.4689
B( 31-C , 39-H ) :   0.9558 B( 32-C , 33-N ) :   1.5339 B( 32-C , 36-H ) :   0.9672
B( 33-N , 34-C ) :   1.4414 B( 34-C , 35-C ) :   1.4123 B( 34-C , 38-H ) :   0.9677
B( 35-C , 37-H ) :   0.9653

-----------------------------------------------------------------------------
         ABSORPTION SPECTRUM VIA TRANSITION ELECTRIC DIPOLE MOMENTS
-----------------------------------------------------------------------------
State   Energy    Wavelength  fosc         T2        TX        TY        TZ
        (cm-1)      (nm)                 (au**2)    (au)      (au)      (au)
-----------------------------------------------------------------------------
   1   23997.8    416.7   1.214554614  16.66177  -3.83822   1.38861  -0.03967
   2   30044.8    332.8   0.022139789   0.24259   0.44534  -0.20976  -0.01628
   3   30775.9    324.9   0.126905357   1.35751  -1.01200   0.57730  -0.00969
   4   33205.7    301.2   0.137203668   1.36028   0.32780  -1.06558  -0.34258
   5   34256.6    291.9   0.027319182   0.26254   0.50926  -0.05522   0.01215

FINAL SINGLE POINT ENERGY     -1033.209574751724

DIPOLE MOMENT
-------------
                                X             Y             Z
Electronic contribution:     19.93923      -6.45820       1.35332
Nuclear contribution   :    -24.94425       7.17657      -1.36553
                        -----------------------------------------
Total Dipole Moment    :     -5.00503       0.71837      -0.01220
                        -----------------------------------------
Magnitude (a.u.)       :      5.05633
Magnitude (Debye)      :     12.85217

VIBRATIONAL FREQUENCIES
-----------------------

Scaling factor for frequencies =  1.000000000 (already applied!)

   0:         0.00 cm**-1
   1:         0.00 cm**-1
   2:         0.00 cm**-1
   3:         0.00 cm**-1
   4:         0.00 cm**-1
   5:         0.00 cm**-1
   6:        23.06 cm**-1
   7:        46.43 cm**-1
   8:        61.57 cm**-1
   9:        69.83 cm**-1
  10:        76.45 cm**-1
  11:        91.86 cm**-1
  12:       123.72 cm**-1
  13:       139.41 cm**-1
  14:       167.39 cm**-1
  15:       193.53 cm**-1
  16:       215.23 cm**-1
  17:       248.85 cm**-1
  18:       269.52 cm**-1
  19:       305.01 cm**-1
  20:       318.74 cm**-1
  21:       337.47 cm**-1
  22:       353.34 cm**-1
  23:       378.37 cm**-1
  24:       381.43 cm**-1
  25:       402.35 cm**-1
  26:       415.56 cm**-1
  27:       439.92 cm**-1
  28:       454.47 cm**-1
  29:       473.66 cm**-1
  30:       516.84 cm**-1
  31:       527.21 cm**-1
  32:       529.22 cm**-1
  33:       550.51 cm**-1
  34:       590.02 cm**-1
  35:       609.14 cm**-1
  36:       624.76 cm**-1
  37:       635.88 cm**-1
  38:       660.13 cm**-1
  39:       691.80 cm**-1
  40:       702.08 cm**-1
  41:       708.75 cm**-1
  42:       721.34 cm**-1
  43:       738.88 cm**-1
  44:       754.29 cm**-1
  45:       780.43 cm**-1
  46:       815.34 cm**-1
  47:       852.88 cm**-1
  48:       859.56 cm**-1
  49:       869.74 cm**-1
  50:       883.10 cm**-1
  51:       889.63 cm**-1
  52:       896.65 cm**-1
  53:       904.11 cm**-1
  54:       913.80 cm**-1
  55:       938.58 cm**-1
  56:       942.48 cm**-1
  57:       979.50 cm**-1
  58:       995.83 cm**-1
  59:      1021.19 cm**-1
  60:      1023.78 cm**-1
  61:      1038.26 cm**-1
  62:      1050.38 cm**-1
  63:      1057.47 cm**-1
  64:      1085.26 cm**-1
  65:      1089.71 cm**-1
  66:      1093.51 cm**-1
  67:      1108.61 cm**-1
  68:      1130.27 cm**-1
  69:      1149.67 cm**-1
  70:      1171.94 cm**-1
  71:      1198.03 cm**-1
  72:      1202.32 cm**-1
  73:      1203.56 cm**-1
  74:      1217.23 cm**-1
  75:      1222.49 cm**-1
  76:      1225.00 cm**-1
  77:      1267.68 cm**-1
  78:      1272.05 cm**-1
  79:      1290.11 cm**-1
  80:      1293.63 cm**-1
  81:      1303.13 cm**-1
  82:      1310.71 cm**-1
  83:      1323.56 cm**-1
  84:      1329.79 cm**-1
  85:      1350.53 cm**-1
  86:      1362.13 cm**-1
  87:      1367.94 cm**-1
  88:      1377.39 cm**-1
  89:      1380.29 cm**-1
  90:      1382.03 cm**-1
  91:      1390.83 cm**-1
  92:      1416.61 cm**-1
  93:      1433.99 cm**-1
  94:      1444.93 cm**-1
  95:      1461.97 cm**-1
  96:      1469.17 cm**-1
  97:      1473.98 cm**-1
  98:      1479.50 cm**-1
  99:      1482.88 cm**-1
 100:      1483.25 cm**-1
 101:      1509.60 cm**-1
 102:      1511.95 cm**-1
 103:      1528.07 cm**-1
 104:      1551.82 cm**-1
 105:      1585.47 cm**-1
 106:      1595.63 cm**-1
 107:      1649.39 cm**-1
 108:      2948.08 cm**-1
 109:      2953.45 cm**-1
 110:      2997.56 cm**-1
 111:      3004.03 cm**-1
 112:      3039.73 cm**-1
 113:      3043.39 cm**-1
 114:      3073.20 cm**-1
 115:      3085.25 cm**-1
 116:      3089.97 cm**-1
 117:      3091.09 cm**-1
 118:      3093.40 cm**-1
 119:      3093.97 cm**-1
 120:      3162.36 cm**-1
 121:      3170.60 cm**-1
 122:      3173.89 cm**-1
 123:      3188.14 cm**-1
 124:      3223.58 cm**-1
 125:      3241.24 cm**-1

IR SPECTRUM
-----------

 Mode   freq       eps      Int      T**2         TX        TY        TZ
       cm**-1   L/(mol*cm) km/mol    a.u.
----------------------------------------------------------------------------
  6:     23.06   0.000268    1.35  0.003624  ( 0.018978  0.011886 -0.055879)
  7:     46.43   0.000249    1.26  0.001671  ( 0.008611 -0.028757  0.027751)
  8:     61.57   0.001798    9.08  0.009110  (-0.023742  0.046469 -0.079920)
  9:     69.83   0.000073    0.37  0.000326  ( 0.011528 -0.011444 -0.007852)
 10:     76.45   0.000301    1.52  0.001229  ( 0.014815 -0.009011  0.030462)
 11:     91.86   0.000384    1.94  0.001305  ( 0.015870 -0.029643  0.013214)
 12:    123.72   0.000879    4.44  0.002216  (-0.000312  0.020051 -0.042592)
 13:    139.41   0.002091   10.56  0.004680  (-0.043318  0.037998 -0.036868)
 14:    167.39   0.001271    6.42  0.002369  (-0.039120  0.024656 -0.015180)
 15:    193.53   0.000223    1.12  0.000359  (-0.018807 -0.001943  0.001145)
 16:    215.23   0.000418    2.11  0.000606  ( 0.020075 -0.011320  0.008647)
 17:    248.85   0.001428    7.22  0.001791  ( 0.029783 -0.027991 -0.010980)
 18:    269.52   0.000183    0.92  0.000212  (-0.013865 -0.003597 -0.002521)
 19:    305.01   0.001124    5.68  0.001150  (-0.007894 -0.015873  0.028909)
 20:    318.74   0.000323    1.63  0.000316  ( 0.003408 -0.013945 -0.010507)
 21:    337.47   0.007209   36.43  0.006666  ( 0.070233 -0.036966  0.019159)
 22:    353.34   0.000241    1.22  0.000213  ( 0.009521  0.010116 -0.004439)
 23:    378.37   0.000895    4.52  0.000738  (-0.025048  0.010452  0.001298)
 24:    381.43   0.001044    5.28  0.000854  ( 0.025848 -0.002006  0.013491)
 25:    402.35   0.000795    4.02  0.000616  ( 0.024781 -0.000905 -0.001188)
 26:    415.56   0.002537   12.82  0.001905  ( 0.040881 -0.007429 -0.013372)
 27:    439.92   0.006008   30.36  0.004262  (-0.048290  0.043869  0.002396)
 28:    454.47   0.007437   37.58  0.005106  ( 0.066326 -0.025185  0.008546)
 29:    473.66   0.012387   62.60  0.008161  (-0.087393  0.022493 -0.004148)
 30:    516.84   0.000094    0.48  0.000057  (-0.002438  0.007051  0.001082)
 31:    527.21   0.003067   15.50  0.001815  (-0.038664  0.013441 -0.011822)
 32:    529.22   0.001134    5.73  0.000669  (-0.019807  0.007520  0.014829)
 33:    550.51   0.005181   26.18  0.002937  (-0.050155  0.005550 -0.019760)
 34:    590.02   0.008896   44.96  0.004705  (-0.065747  0.019242 -0.003496)
 35:    609.14   0.000848    4.28  0.000434  (-0.002239 -0.020509 -0.002926)
 36:    624.76   0.001965    9.93  0.000982  (-0.029658 -0.008671  0.005173)
 37:    635.88   0.002633   13.31  0.001292  ( 0.012907 -0.030838 -0.013222)
 38:    660.13   0.002846   14.38  0.001346  (-0.023362 -0.006634 -0.027492)
 39:    691.80   0.004039   20.41  0.001822  ( 0.041956  0.003875 -0.006832)
 40:    702.08   0.000642    3.25  0.000285  (-0.011736 -0.009568 -0.007499)
 41:    708.75   0.020250  102.34  0.008916  (-0.029299 -0.040465  0.080127)
 42:    721.34   0.001252    6.33  0.000542  (-0.020394 -0.008776  0.006992)
 43:    738.88   0.000542    2.74  0.000229  (-0.012517  0.008378 -0.001471)
 44:    754.29   0.001705    8.62  0.000706  (-0.001706 -0.001990  0.026433)
 45:    780.43   0.003910   19.76  0.001563  (-0.031383  0.022994 -0.007059)
 46:    815.34   0.006966   35.21  0.002666  ( 0.003976  0.024098 -0.045495)
 47:    852.88   0.000464    2.34  0.000170  ( 0.009843  0.005013 -0.006908)
 48:    859.56   0.003642   18.41  0.001322  (-0.028867  0.010063 -0.019691)
 49:    869.74   0.002948   14.90  0.001058  (-0.018677  0.026538  0.002161)
 50:    883.10   0.002037   10.29  0.000720  (-0.014498  0.011212  0.019591)
 51:    889.63   0.003815   19.28  0.001338  (-0.029656 -0.006006  0.020557)
 52:    896.65   0.002499   12.63  0.000870  (-0.018601 -0.000646  0.022873)
 53:    904.11   0.008902   44.99  0.003073  (-0.053413  0.008387 -0.012220)
 54:    913.80   0.000602    3.04  0.000206  (-0.007929 -0.011393  0.003602)
 55:    938.58   0.002065   10.43  0.000687  ( 0.013196 -0.020096  0.010418)
 56:    942.48   0.006248   31.57  0.002069  (-0.038981  0.023392  0.001422)
 57:    979.50   0.029224  147.69  0.009311  ( 0.087119 -0.041300  0.003892)
 58:    995.83   0.000152    0.77  0.000048  (-0.004888 -0.004783  0.000976)
 59:   1021.19   0.003921   19.81  0.001198  (-0.029946 -0.005251 -0.016547)
 60:   1023.78   0.000334    1.69  0.000102  (-0.008732  0.004046  0.003022)
 61:   1038.26   0.000917    4.63  0.000275  (-0.002678  0.009577  0.013289)
 62:   1050.38   0.004129   20.87  0.001227  ( 0.032906  0.010054  0.006540)
 63:   1057.47   0.001979   10.00  0.000584  (-0.003257  0.021382  0.010784)
 64:   1085.26   0.007886   39.85  0.002268  (-0.047386  0.001553  0.004461)
 65:   1089.71   0.003542   17.90  0.001014  ( 0.024228 -0.020168 -0.004527)
 66:   1093.51   0.001212    6.12  0.000346  (-0.007030  0.003175 -0.016921)
 67:   1108.61   0.003931   19.87  0.001107  ( 0.031636 -0.006820  0.007693)
 68:   1130.27   0.045084  227.84  0.012448  (-0.094634  0.057734  0.012597)
 69:   1149.67   0.028260  142.82  0.007671  ( 0.066405 -0.056215 -0.010056)
 70:   1171.94   0.147667  746.25  0.039321  (-0.193504  0.042037 -0.010484)
 71:   1198.03   0.042071  212.61  0.010959  (-0.091862  0.049976  0.004755)
 72:   1202.32   0.141692  716.05  0.036776  (-0.187829  0.037130 -0.010863)
 73:   1203.56   0.050767  256.56  0.013163  ( 0.098142 -0.059190  0.005262)
 74:   1217.23   0.020907  105.65  0.005360  (-0.068209  0.025510 -0.007531)
 75:   1222.49   0.025296  127.83  0.006457  (-0.064404  0.047524  0.007125)
 76:   1225.00   0.005608   28.34  0.001429  ( 0.026440 -0.026709 -0.004037)
 77:   1267.68   0.071412  360.89  0.017579  ( 0.127342 -0.036644  0.004537)
 78:   1272.05   0.019785   99.99  0.004854  ( 0.061414  0.023543  0.022975)
 79:   1290.11   0.045998  232.45  0.011126  (-0.100381  0.030541  0.010834)
 80:   1293.63   0.013252   66.97  0.003197  (-0.055566  0.009352 -0.004644)
 81:   1303.13   0.078347  395.94  0.018762  (-0.133199  0.022920 -0.022245)
 82:   1310.71   0.000283    1.43  0.000067  (-0.002756  0.006574 -0.004061)
 83:   1323.56   0.298941  1510.73  0.070483  (-0.234032  0.124952  0.009963)
 84:   1329.79   0.005572   28.16  0.001308  (-0.031839  0.016306  0.005285)
 85:   1350.53   0.000953    4.82  0.000220  ( 0.005352  0.013646  0.002320)
 86:   1362.13   0.002835   14.32  0.000649  (-0.001370  0.023801  0.009002)
 87:   1367.94   0.009287   46.93  0.002119  (-0.044857 -0.003616 -0.009670)
 88:   1377.39   0.000980    4.95  0.000222  (-0.002185 -0.012739 -0.007411)
 89:   1380.29   0.013907   70.28  0.003144  (-0.055746  0.005623 -0.002235)
 90:   1382.03   0.005161   26.08  0.001165  (-0.022142  0.024548  0.008510)
 91:   1390.83   0.041645  210.46  0.009344  ( 0.063031 -0.072169 -0.012758)
 92:   1416.61   0.023020  116.33  0.005071  (-0.062824  0.033020  0.005828)
 93:   1433.99   0.034332  173.50  0.007471  (-0.076124  0.040703 -0.004424)
 94:   1444.93   0.000359    1.82  0.000078  ( 0.004715 -0.006515 -0.003597)
 95:   1461.97   0.002162   10.92  0.000461  ( 0.020999  0.003747  0.002531)
 96:   1469.17   0.001170    5.91  0.000249  ( 0.004598 -0.005733  0.013948)
 97:   1473.98   0.004890   24.71  0.001035  ( 0.020821 -0.024471 -0.001750)
 98:   1479.50   0.040011  202.20  0.008439  ( 0.086368 -0.029565  0.010278)
 99:   1482.88   0.010887   55.02  0.002291  ( 0.047476 -0.004686  0.003877)
100:   1483.25   0.006673   33.72  0.001404  (-0.035196  0.007171  0.010667)
101:   1509.60   0.014073   71.12  0.002909  (-0.049761 -0.019726 -0.006619)
102:   1511.95   0.055056  278.23  0.011364  (-0.093339  0.050465  0.010230)
103:   1528.07   0.035094  177.35  0.007167  (-0.082305 -0.007248 -0.018448)
104:   1551.82   0.008889   44.92  0.001788  (-0.027191  0.029875  0.012478)
105:   1585.47   0.013689   69.18  0.002694  ( 0.031036 -0.041334 -0.004761)
106:   1595.63   0.177707  898.06  0.034755  ( 0.185040 -0.007919  0.021269)
107:   1649.39   0.289236  1461.68  0.054723  ( 0.207499  0.092167  0.056327)
108:   2948.08   0.016279   82.27  0.001723  ( 0.018861 -0.023342 -0.028681)
109:   2953.45   0.048722  246.22  0.005148  ( 0.060882 -0.006693 -0.037370)
110:   2997.56   0.007833   39.59  0.000815  (-0.021402 -0.017096  0.008074)
111:   3004.03   0.006135   31.00  0.000637  ( 0.006181  0.010095  0.022298)
112:   3039.73   0.007703   38.93  0.000791  ( 0.008210 -0.007735  0.025761)
113:   3043.39   0.010846   54.81  0.001112  (-0.003236  0.020986 -0.025714)
114:   3073.20   0.008240   41.64  0.000837  (-0.005788 -0.018843 -0.021171)
115:   3085.25   0.003473   17.55  0.000351  (-0.015198  0.008659 -0.006729)
116:   3089.97   0.007037   35.56  0.000711  ( 0.019956  0.017657 -0.000810)
117:   3091.09   0.010018   50.63  0.001011  (-0.029806 -0.008015  0.007665)
118:   3093.40   0.030193  152.58  0.003046  ( 0.040795 -0.036064  0.009005)
119:   3093.97   0.007802   39.43  0.000787  (-0.003223  0.012978  0.024660)
120:   3162.36   0.003142   15.88  0.000310  ( 0.015311 -0.008691  0.000222)
121:   3170.60   0.002380   12.03  0.000234  (-0.010095 -0.010410 -0.004898)
122:   3173.89   0.003942   19.92  0.000388  ( 0.018012 -0.000863  0.007901)
123:   3188.14   0.005904   29.83  0.000578  ( 0.023207 -0.002933  0.005541)
124:   3223.58   0.000138    0.70  0.000013  ( 0.000023 -0.003183 -0.001805)
125:   3241.24   0.000507    2.56  0.000049  ( 0.005122 -0.004034  0.002511)

--------------------------
THERMOCHEMISTRY AT 298.15K
--------------------------

Temperature         ... 298.15 K
Pressure            ... 1.00 atm
Total Mass          ... 318.38 AMU

Throughout the following assumptions are being made:
  (1) The electronic state is orbitally nondegenerate
  (2) There are no thermally accessible electronically excited states
  (3) Hindered rotations indicated by low frequency modes are not
      treated as such but are treated as vibrations and this may
      cause some error
  (4) All equations used are the standard statistical mechanics
      equations for an ideal gas
  (5) All vibrations are strictly harmonic

freq.      23.06  E(vib)   ...       0.56
freq.      46.43  E(vib)   ...       0.53
freq.      61.57  E(vib)   ...       0.51
freq.      69.83  E(vib)   ...       0.50
freq.      76.45  E(vib)   ...       0.49
freq.      91.86  E(vib)   ...       0.47
freq.     123.72  E(vib)   ...       0.43
freq.     139.41  E(vib)   ...       0.42
freq.     167.39  E(vib)   ...       0.39
freq.     193.53  E(vib)   ...       0.36
freq.     215.23  E(vib)   ...       0.34
freq.     248.85  E(vib)   ...       0.31
freq.     269.52  E(vib)   ...       0.29
freq.     305.01  E(vib)   ...       0.26
freq.     318.74  E(vib)   ...       0.25
freq.     337.47  E(vib)   ...       0.24
freq.     353.34  E(vib)   ...       0.22
freq.     378.37  E(vib)   ...       0.21
freq.     381.43  E(vib)   ...       0.21
freq.     402.35  E(vib)   ...       0.19
freq.     415.56  E(vib)   ...       0.18
freq.     439.92  E(vib)   ...       0.17
freq.     454.47  E(vib)   ...       0.16
freq.     473.66  E(vib)   ...       0.15
freq.     516.84  E(vib)   ...       0.13
freq.     527.21  E(vib)   ...       0.13
freq.     529.22  E(vib)   ...       0.13
freq.     550.51  E(vib)   ...       0.12
freq.     590.02  E(vib)   ...       0.10
freq.     609.14  E(vib)   ...       0.10
freq.     624.76  E(vib)   ...       0.09
freq.     635.88  E(vib)   ...       0.09
freq.     660.13  E(vib)   ...       0.08
freq.     691.80  E(vib)   ...       0.07
freq.     702.08  E(vib)   ...       0.07
freq.     708.75  E(vib)   ...       0.07
freq.     721.34  E(vib)   ...       0.07
freq.     738.88  E(vib)   ...       0.06
freq.     754.29  E(vib)   ...       0.06
freq.     780.43  E(vib)   ...       0.05
freq.     815.34  E(vib)   ...       0.05
freq.     852.88  E(vib)   ...       0.04
freq.     859.56  E(vib)   ...       0.04
freq.     869.74  E(vib)   ...       0.04
freq.     883.10  E(vib)   ...       0.04
freq.     889.63  E(vib)   ...       0.04
freq.     896.65  E(vib)   ...       0.03
freq.     904.11  E(vib)   ...       0.03
freq.     913.80  E(vib)   ...       0.03
freq.     938.58  E(vib)   ...       0.03
freq.     942.48  E(vib)   ...       0.03
freq.     979.50  E(vib)   ...       0.03
freq.     995.83  E(vib)   ...       0.02
freq.    1021.19  E(vib)   ...       0.02
freq.    1023.78  E(vib)   ...       0.02
freq.    1038.26  E(vib)   ...       0.02
freq.    1050.38  E(vib)   ...       0.02
freq.    1057.47  E(vib)   ...       0.02
freq.    1085.26  E(vib)   ...       0.02
freq.    1089.71  E(vib)   ...       0.02
freq.    1093.51  E(vib)   ...       0.02
freq.    1108.61  E(vib)   ...       0.02
freq.    1130.27  E(vib)   ...       0.01
freq.    1149.67  E(vib)   ...       0.01
freq.    1171.94  E(vib)   ...       0.01
freq.    1198.03  E(vib)   ...       0.01
freq.    1202.32  E(vib)   ...       0.01
freq.    1203.56  E(vib)   ...       0.01
freq.    1217.23  E(vib)   ...       0.01
freq.    1222.49  E(vib)   ...       0.01
freq.    1225.00  E(vib)   ...       0.01
freq.    1267.68  E(vib)   ...       0.01
freq.    1272.05  E(vib)   ...       0.01
freq.    1290.11  E(vib)   ...       0.01
freq.    1293.63  E(vib)   ...       0.01
freq.    1303.13  E(vib)   ...       0.01
freq.    1310.71  E(vib)   ...       0.01
freq.    1323.56  E(vib)   ...       0.01
freq.    1329.79  E(vib)   ...       0.01
freq.    1350.53  E(vib)   ...       0.01
freq.    1362.13  E(vib)   ...       0.01
freq.    1367.94  E(vib)   ...       0.01
freq.    1377.39  E(vib)   ...       0.01
freq.    1380.29  E(vib)   ...       0.01
freq.    1382.03  E(vib)   ...       0.01
freq.    1390.83  E(vib)   ...       0.00
freq.    1416.61  E(vib)   ...       0.00
freq.    1433.99  E(vib)   ...       0.00
freq.    1444.93  E(vib)   ...       0.00
freq.    1461.97  E(vib)   ...       0.00
freq.    1469.17  E(vib)   ...       0.00
freq.    1473.98  E(vib)   ...       0.00
freq.    1479.50  E(vib)   ...       0.00
freq.    1482.88  E(vib)   ...       0.00
freq.    1483.25  E(vib)   ...       0.00
freq.    1509.60  E(vib)   ...       0.00
freq.    1511.95  E(vib)   ...       0.00
freq.    1528.07  E(vib)   ...       0.00
freq.    1551.82  E(vib)   ...       0.00
freq.    1585.47  E(vib)   ...       0.00
freq.    1595.63  E(vib)   ...       0.00
freq.    1649.39  E(vib)   ...       0.00
freq.    2948.08  E(vib)   ...       0.00
freq.    2953.45  E(vib)   ...       0.00
freq.    2997.56  E(vib)   ...       0.00
freq.    3004.03  E(vib)   ...       0.00
freq.    3039.73  E(vib)   ...       0.00
freq.    3043.39  E(vib)   ...       0.00
freq.    3073.20  E(vib)   ...       0.00
freq.    3085.25  E(vib)   ...       0.00
freq.    3089.97  E(vib)   ...       0.00
freq.    3091.09  E(vib)   ...       0.00
freq.    3093.40  E(vib)   ...       0.00
freq.    3093.97  E(vib)   ...       0.00
freq.    3162.36  E(vib)   ...       0.00
freq.    3170.60  E(vib)   ...       0.00
freq.    3173.89  E(vib)   ...       0.00
freq.    3188.14  E(vib)   ...       0.00
freq.    3223.58  E(vib)   ...       0.00
freq.    3241.24  E(vib)   ...       0.00

------------
INNER ENERGY
------------

The inner energy is: U= E(el) + E(ZPE) + E(vib) + E(rot) + E(trans)
    E(el)   - is the total energy from the electronic structure calculation
              = E(kin-el) + E(nuc-el) + E(el-el) + E(nuc-nuc)
    E(ZPE)  - the the zero temperature vibrational energy from the frequency calculation
    E(vib)  - the the finite temperature correction to E(ZPE) due to population
              of excited vibrational states
    E(rot)  - is the rotational thermal energy
    E(trans)- is the translational thermal energy

Summary of contributions to the inner energy U:
Electronic energy                ...  -1033.20957475 Eh
Zero point energy                ...      0.33742226 Eh     211.74 kcal/mol
Thermal vibrational correction   ...      0.01609010 Eh      10.10 kcal/mol
Thermal rotational correction    ...      0.00141627 Eh       0.89 kcal/mol
Thermal translational correction ...      0.00141627 Eh       0.89 kcal/mol
-----------------------------------------------------------------------
Total thermal energy                  -1032.85322985 Eh

Rotational constants in cm-1:     0.021198     0.003944     0.003362

                             ****ORCA TERMINATED NORMALLY****
TOTAL RUN TIME: 4 days 21 hours 45 minutes 11 seconds 639 msec
