                         Program Version 6.0.1  -  RELEASE   -
|  1> ! B3LYP/G OPT FREQ 6-311G* CPCM(Water)
|  2>
|  3> * xyz 0 1
|  4> C  -3.40418561955923770768 -0.99631005054325905146 -0.39945067512701076806
|  5> C  -2.86003569140734725806 -1.89319737171454383073 -1.31588925260829570085
|  6> C  -1.52887018819225151134 -1.81824350011512470005 -1.63656634391916422366
|  7> C  -2.60480732717914786889 -0.05925789879808396332 0.21926755552678772743
|  8> C  -1.22033769793655166858 0.00321833407012269129 -0.04013563057553640873
|  9> O  -3.22566434923104861099 0.79631054626813357888 1.11602588975354932721
| 10> C  -0.69392435573664201787 -0.87394852637880804380 -1.01946021458804714221
| 11> C  0.68135913817745608068 -0.78262821445513786056 -1.38362455440802945006
| 12> C  1.50131024759285325310 0.13170998989336724083 -0.81882887272621129870
| 13> C  -0.32484590173190724949 0.91100032385525531176 0.62930817786401893610
| 14> C  1.02433153950373667662 0.99542214410545248882 0.20545608859965067139
| 15> N  -0.77862398343765260034 1.64587489910303053087 1.65548728667281430660
| 16> C  0.02415575420194841089 2.50404719237332029635 2.23639577404294520591
| 17> C  1.35217334624980178859 2.70635534334686900237 1.85559653171739702415
| 18> C  1.85614085926917060654 1.93104584547808699746 0.84025730580607438380
| 19> C  -3.08669262984488712576 2.13358631053785074982 0.90178775083343065688
| 20> O  -2.70907129774251975718 2.59409262115029859430 -0.16866818650521045453
| 21> N  -3.52585656746685760510 2.86634732026504313041 1.92751668859112501586
| 22> C  -3.93788174192128792583 2.31792630761306517329 3.19986195960180497266
| 23> C  -3.49943758584627495622 4.30934757360949571847 1.85212018671582345775
| 24> H  -2.80218822978963322257 4.70966289254423653432 2.58929216364634440239
| 25> H  -4.49678694042663540387 4.70410433577167275132 2.04692192723900356910
| 26> H  -3.17863676761233371337 4.60230594469961573623 0.85495701784443145499
| 27> H  -4.95964236921039702821 2.63307399981554723922 3.41430917114515120048
| 28> H  -3.27773194158414282739 2.68659686653387019817 3.98608468432912976809
| 29> H  -3.88924873719626074120 1.23491202143540190761 3.16842757927880125379
| 30> H  -1.10316177703179940650 -2.48255890405942647448 -2.37236565104667151971
| 31> H  -4.45706345951978377684 -1.01155610100678128305 -0.16534282105293701681
| 32> H  -3.49905283168166425511 -2.62368833292888714581 -1.78560943801850058321
| 33> H  1.04633787113746778985 -1.45858146877639605066 -2.14168485970076227787
| 34> H  2.53564154296639321373 0.21825426054947449916 -1.11626243196565955174
| 35> H  -0.41114150143429017970 3.05848059475524491901 3.05675355085114919262
| 36> H  1.95737169720178050270 3.44109275586225260568 2.36102610844557814218
| 37> H  2.88421748112794373853 2.02304193786384445275 0.52141551218080395280
| 38> *
| 39>
| 40>                          ****END OF INPUT****
 Total Charge           Charge          ....    0
 Multiplicity           Mult            ....    1
 Number of Electrons    NEL             ....  140
FINAL SINGLE POINT ENERGY      -878.321377273716
FINAL SINGLE POINT ENERGY      -878.326268408169
FINAL SINGLE POINT ENERGY      -878.327422565283
FINAL SINGLE POINT ENERGY      -878.328108232798
FINAL SINGLE POINT ENERGY      -878.328624664984
FINAL SINGLE POINT ENERGY      -878.328885660212
FINAL SINGLE POINT ENERGY      -878.329155309333
FINAL SINGLE POINT ENERGY      -878.329334648967
FINAL SINGLE POINT ENERGY      -878.329384959597
FINAL SINGLE POINT ENERGY      -878.329392944258
FINAL SINGLE POINT ENERGY      -878.329394235371
                    ***********************HURRAY********************

CARTESIAN COORDINATES (ANGSTROEM)
---------------------------------
  C     -3.373321   -0.777567   -0.459145
  C     -2.888966   -1.684057   -1.412140
  C     -1.540926   -1.715095   -1.693501
  C     -2.516093    0.082794    0.197992
  C     -1.117826    0.088703   -0.058257
  O     -3.097337    0.870553    1.184954
  C     -0.644053   -0.848088   -1.031219
  C      0.756204   -0.920924   -1.339020
  C      1.660115   -0.120841   -0.721932
  C     -0.143914    0.955997    0.596838
  C      1.235488    0.832219    0.257925
  N     -0.558238    1.862717    1.514788
  C      0.337725    2.637617    2.106250
  C      1.716015    2.584594    1.842652
  C      2.159962    1.674814    0.909202
  C     -3.343846    2.191582    0.888282
  O     -3.190744    2.646641   -0.231851
  N     -3.817876    2.862901    1.960547
  C     -3.886620    2.320067    3.313225
  C     -4.145020    4.276680    1.824309
  H     -3.410365    4.896333    2.349481
  H     -5.131184    4.469090    2.254419
  H     -4.152476    4.549113    0.773158
  H     -4.890350    2.473197    3.718977
  H     -3.169761    2.832241    3.963321
  H     -3.664568    1.259024    3.309697
  H     -1.146255   -2.411978   -2.425422
  H     -4.428983   -0.737291   -0.215665
  H     -3.576283   -2.352007   -1.919604
  H      1.076692   -1.643068   -2.082959
  H      2.717343   -0.187265   -0.958948
  H     -0.049622    3.347779    2.833021
  H      2.398909    3.247394    2.361572
  H      3.214325    1.593972    0.663432

 Multiplicity           Mult            ....    1
 Number of Electrons    NEL             ....  140
 Basis Dimension        Dim             ....  402

ORBITAL ENERGIES
----------------

  NO   OCC          E(Eh)            E(eV)
   0   2.0000     -19.164681      -521.4975
   1   2.0000     -19.089234      -519.4445
   2   2.0000     -14.345112      -390.3503
   3   2.0000     -14.313828      -389.4991
   4   2.0000     -10.319659      -280.8122
   5   2.0000     -10.247606      -278.8515
   6   2.0000     -10.226791      -278.2851
   7   2.0000     -10.212395      -277.8934
   8   2.0000     -10.201903      -277.6079
   9   2.0000     -10.198615      -277.5184
  10   2.0000     -10.197273      -277.4819
  11   2.0000     -10.194545      -277.4077
  12   2.0000     -10.193882      -277.3896
  13   2.0000     -10.193498      -277.3792
  14   2.0000     -10.183960      -277.1196
  15   2.0000     -10.183781      -277.1148
  16   2.0000     -10.183734      -277.1135
  17   2.0000     -10.183081      -277.0957
  18   2.0000     -10.181427      -277.0507
  19   2.0000     -10.180625      -277.0289
  20   2.0000      -1.114360       -30.3233
  21   2.0000      -1.021773       -27.8038
  22   2.0000      -0.955688       -26.0056
  23   2.0000      -0.944896       -25.7119
  24   2.0000      -0.881195       -23.9785
  25   2.0000      -0.839436       -22.8422
  26   2.0000      -0.808228       -21.9930
  27   2.0000      -0.783681       -21.3250
  28   2.0000      -0.752457       -20.4754
  29   2.0000      -0.744943       -20.2709
  30   2.0000      -0.721559       -19.6346
  31   2.0000      -0.706012       -19.2116
  32   2.0000      -0.656243       -17.8573
  33   2.0000      -0.649157       -17.6645
  34   2.0000      -0.631819       -17.1927
  35   2.0000      -0.619547       -16.8587
  36   2.0000      -0.574692       -15.6382
  37   2.0000      -0.548107       -14.9147
  38   2.0000      -0.536659       -14.6032
  39   2.0000      -0.531213       -14.4550
  40   2.0000      -0.515913       -14.0387
  41   2.0000      -0.495965       -13.4959
  42   2.0000      -0.491847       -13.3838
  43   2.0000      -0.483836       -13.1659
  44   2.0000      -0.479542       -13.0490
  45   2.0000      -0.466695       -12.6994
  46   2.0000      -0.446380       -12.1466
  47   2.0000      -0.443591       -12.0707
  48   2.0000      -0.435531       -11.8514
  49   2.0000      -0.430491       -11.7143
  50   2.0000      -0.420030       -11.4296
  51   2.0000      -0.413539       -11.2530
  52   2.0000      -0.408439       -11.1142
  53   2.0000      -0.407246       -11.0817
  54   2.0000      -0.405319       -11.0293
  55   2.0000      -0.400809       -10.9066
  56   2.0000      -0.386712       -10.5230
  57   2.0000      -0.385275       -10.4839
  58   2.0000      -0.376777       -10.2526
  59   2.0000      -0.363954        -9.9037
  60   2.0000      -0.356815        -9.7094
  61   2.0000      -0.336975        -9.1695
  62   2.0000      -0.317323        -8.6348
  63   2.0000      -0.306555        -8.3418
  64   2.0000      -0.287781        -7.8309
  65   2.0000      -0.281144        -7.6503
  66   2.0000      -0.262425        -7.1410
  67   2.0000      -0.249562        -6.7909
  68   2.0000      -0.248777        -6.7696
  69   2.0000      -0.229521        -6.2456
  70   0.0000      -0.062010        -1.6874
  71   0.0000      -0.053797        -1.4639
  72   0.0000      -0.014875        -0.4048
  73   0.0000       0.012215         0.3324
  74   0.0000       0.039322         1.0700

MULLIKEN ATOMIC CHARGES
-----------------------
   0 C :   -0.214243
   1 C :   -0.220363
   2 C :   -0.221231
   3 C :    0.203403
   4 C :    0.036932
   5 O :   -0.387693
   6 C :    0.001102
   7 C :   -0.226023
   8 C :   -0.230832
   9 C :    0.123047
  10 C :   -0.013304
  11 N :   -0.377982
  12 C :   -0.045932
  13 C :   -0.297706
  14 C :   -0.100644
  15 C :    0.565948
  16 O :   -0.457405
  17 N :   -0.340666
  18 C :   -0.520758
  19 C :   -0.523606
  20 H :    0.231959
  21 H :    0.234220
  22 H :    0.234939
  23 H :    0.233449
  24 H :    0.231512
  25 H :    0.244882
  26 H :    0.228173
  27 H :    0.228361
  28 H :    0.228069
  29 H :    0.230118
  30 H :    0.228751
  31 H :    0.225784
  32 H :    0.230552
  33 H :    0.237190
Sum of atomic charges:   -0.0000000

LOEWDIN ATOMIC CHARGES
----------------------
   0 C :   -0.114468
   1 C :   -0.102154
   2 C :   -0.101629
   3 C :   -0.008471
   4 C :   -0.036898
   5 O :    0.047812
   6 C :   -0.029132
   7 C :   -0.093023
   8 C :   -0.098123
   9 C :   -0.032004
  10 C :   -0.048857
  11 N :   -0.017066
  12 C :   -0.099602
  13 C :   -0.128624
  14 C :   -0.060790
  15 C :   -0.111951
  16 O :   -0.192948
  17 N :    0.031333
  18 C :   -0.242470
  19 C :   -0.239996
  20 H :    0.111475
  21 H :    0.114691
  22 H :    0.117167
  23 H :    0.113888
  24 H :    0.111334
  25 H :    0.118414
  26 H :    0.124089
  27 H :    0.124809
  28 H :    0.124521
  29 H :    0.125763
  30 H :    0.125488
  31 H :    0.110848
  32 H :    0.127766
  33 H :    0.128806

  Mayer bond orders larger than 0.100000
B(  0-C ,  1-C ) :   1.3451 B(  0-C ,  3-C ) :   1.4988 B(  0-C , 27-H ) :   0.9211
B(  1-C ,  2-C ) :   1.5083 B(  1-C , 28-H ) :   0.9270 B(  2-C ,  6-C ) :   1.3189
B(  2-C , 26-H ) :   0.9230 B(  3-C ,  4-C ) :   1.2581 B(  3-C ,  5-O ) :   0.9088
B(  4-C ,  6-C ) :   1.3386 B(  4-C ,  9-C ) :   1.1905 B(  5-O , 15-C ) :   1.0180
B(  6-C ,  7-C ) :   1.1991 B(  7-C ,  8-C ) :   1.6578 B(  7-C , 29-H ) :   0.9205
B(  8-C , 10-C ) :   1.1871 B(  8-C , 30-H ) :   0.9238 B(  9-C , 10-C ) :   1.2390
B(  9-C , 11-N ) :   1.4565 B( 10-C , 14-C ) :   1.3096 B( 11-N , 12-C ) :   1.5633
B( 12-C , 13-C ) :   1.3207 B( 12-C , 31-H ) :   0.9266 B( 13-C , 14-C ) :   1.4954
B( 13-C , 32-H ) :   0.9221 B( 14-C , 33-H ) :   0.9253 B( 15-C , 16-O ) :   1.8918
B( 15-C , 17-N ) :   1.2095 B( 17-N , 18-C ) :   0.9515 B( 17-N , 19-C ) :   0.9628
B( 18-C , 23-H ) :   0.9194 B( 18-C , 24-H ) :   0.9161 B( 18-C , 25-H ) :   0.9148
B( 19-C , 20-H ) :   0.9184 B( 19-C , 21-H ) :   0.9210 B( 19-C , 22-H ) :   0.9160

FINAL SINGLE POINT ENERGY      -878.329394920084

DIPOLE MOMENT
-------------

Method             : SCF
Type of density    : Electron Density
Multiplicity       :   1
Irrep              :   0
Energy             :  -878.3293949200842690 Eh
Relativity type    :
Basis              : AO
                                X                 Y                 Z
Electronic contribution:      5.206815359      -6.333735043      -5.707178173
Nuclear contribution   :     -4.265001960       6.092216557       6.758663704
                        -----------------------------------------
Total Dipole Moment    :      0.941813399      -0.241518486       1.051485531
                        -----------------------------------------
Magnitude (a.u.)       :      1.432119226
Magnitude (Debye)      :      3.640157785

VIBRATIONAL FREQUENCIES
-----------------------

Scaling factor for frequencies =  1.000000000  (already applied!)

     0:       0.00 cm**-1
     1:       0.00 cm**-1
     2:       0.00 cm**-1
     3:       0.00 cm**-1
     4:       0.00 cm**-1
     5:       0.00 cm**-1
     6:       9.48 cm**-1
     7:      36.56 cm**-1
     8:      49.46 cm**-1
     9:      59.25 cm**-1
    10:      97.19 cm**-1
    11:     103.76 cm**-1
    12:     112.58 cm**-1
    13:     131.19 cm**-1
    14:     204.07 cm**-1
    15:     220.12 cm**-1
    16:     228.03 cm**-1
    17:     232.77 cm**-1
    18:     246.59 cm**-1
    19:     297.06 cm**-1
    20:     366.74 cm**-1
    21:     376.36 cm**-1
    22:     409.59 cm**-1
    23:     421.03 cm**-1
    24:     463.45 cm**-1
    25:     488.85 cm**-1
    26:     509.54 cm**-1
    27:     519.39 cm**-1
    28:     524.84 cm**-1
    29:     561.35 cm**-1
    30:     582.08 cm**-1
    31:     607.31 cm**-1
    32:     623.10 cm**-1
    33:     659.02 cm**-1
    34:     701.57 cm**-1
    35:     729.94 cm**-1
    36:     735.94 cm**-1
    37:     739.09 cm**-1
    38:     773.24 cm**-1
    39:     800.82 cm**-1
    40:     823.82 cm**-1
    41:     833.31 cm**-1
    42:     853.82 cm**-1
    43:     868.07 cm**-1
    44:     870.64 cm**-1
    45:     921.98 cm**-1
    46:     965.50 cm**-1
    47:     979.49 cm**-1
    48:     987.93 cm**-1
    49:     995.41 cm**-1
    50:    1000.87 cm**-1
    51:    1029.09 cm**-1
    52:    1046.63 cm**-1
    53:    1082.93 cm**-1
    54:    1084.27 cm**-1
    55:    1107.98 cm**-1
    56:    1134.55 cm**-1
    57:    1148.06 cm**-1
    58:    1161.55 cm**-1
    59:    1172.64 cm**-1
    60:    1181.17 cm**-1
    61:    1188.14 cm**-1
    62:    1220.96 cm**-1
    63:    1225.56 cm**-1
    64:    1257.68 cm**-1
    65:    1272.06 cm**-1
    66:    1285.47 cm**-1
    67:    1324.22 cm**-1
    68:    1342.46 cm**-1
    69:    1355.89 cm**-1
    70:    1412.23 cm**-1
    71:    1422.50 cm**-1
    72:    1447.53 cm**-1
    73:    1452.98 cm**-1
    74:    1457.25 cm**-1
    75:    1470.59 cm**-1
    76:    1478.07 cm**-1
    77:    1492.91 cm**-1
    78:    1501.55 cm**-1
    79:    1505.30 cm**-1
    80:    1531.65 cm**-1
    81:    1537.07 cm**-1
    82:    1548.62 cm**-1
    83:    1601.23 cm**-1
    84:    1633.10 cm**-1
    85:    1647.00 cm**-1
    86:    1661.69 cm**-1
    87:    1743.14 cm**-1
    88:    3024.30 cm**-1
    89:    3029.42 cm**-1
    90:    3074.73 cm**-1
    91:    3080.13 cm**-1
    92:    3150.90 cm**-1
    93:    3169.78 cm**-1
    94:    3172.16 cm**-1
    95:    3176.28 cm**-1
    96:    3176.92 cm**-1
    97:    3186.61 cm**-1
    98:    3189.46 cm**-1
    99:    3192.41 cm**-1
   100:    3201.09 cm**-1
   101:    3201.36 cm**-1

IR SPECTRUM
-----------

 Mode   freq       eps      Int      T**2         TX        TY        TZ
       cm**-1   L/(mol*cm) km/mol    a.u.
----------------------------------------------------------------------------
  6:      9.48   0.000251    1.27  0.008273  (-0.090476 -0.009317 -0.000286)
  7:     36.56   0.000476    2.41  0.004062  ( 0.045945 -0.036182  0.025343)
  8:     49.46   0.000176    0.89  0.001108  ( 0.019386 -0.012087  0.024215)
  9:     59.25   0.000987    4.99  0.005200  ( 0.060829  0.032802  0.020578)
 10:     97.19   0.001326    6.70  0.004256  (-0.019828  0.039163 -0.048264)
 11:    103.76   0.000994    5.02  0.002989  ( 0.008306  0.050498 -0.019242)
 12:    112.58   0.000207    1.04  0.000573  (-0.022591  0.007840  0.001068)
 13:    131.19   0.000398    2.01  0.000946  (-0.030186  0.001928 -0.005570)
 14:    204.07   0.000160    0.81  0.000244  (-0.010006  0.000889  0.011983)
 15:    220.12   0.001079    5.45  0.001530  (-0.036457  0.001585  0.014068)
 16:    228.03   0.000722    3.65  0.000988  (-0.030992  0.005101  0.001137)
 17:    232.77   0.001402    7.09  0.001880  (-0.004903 -0.026018  0.034333)
 18:    246.59   0.000270    1.37  0.000342  (-0.012948 -0.007916 -0.010570)
 19:    297.06   0.000148    0.75  0.000156  (-0.000506 -0.007821  0.009708)
 20:    366.74   0.003210   16.22  0.002732  (-0.019396  0.042488  0.023457)
 21:    376.36   0.001658    8.38  0.001375  ( 0.016936 -0.032291 -0.006727)
 22:    409.59   0.000760    3.84  0.000579  ( 0.011483 -0.009368 -0.018949)
 23:    421.03   0.000052    0.26  0.000038  ( 0.003239 -0.004435 -0.002886)
 24:    463.45   0.001853    9.37  0.001248  (-0.014412  0.024914 -0.020481)
 25:    488.85   0.000148    0.75  0.000095  ( 0.002671 -0.004671 -0.008110)
 26:    509.54   0.000055    0.28  0.000033  ( 0.004746  0.003275 -0.000391)
 27:    519.39   0.001048    5.30  0.000630  (-0.001197  0.024860 -0.003210)
 28:    524.84   0.000987    4.99  0.000587  ( 0.022517  0.007431  0.004952)
 29:    561.35   0.001213    6.13  0.000674  ( 0.012851  0.014866  0.016974)
 30:    582.08   0.000223    1.13  0.000120  (-0.006034  0.000718  0.009099)
 31:    607.31   0.001639    8.28  0.000842  (-0.019491  0.003921  0.021138)
 32:    623.10   0.002463   12.45  0.001234  ( 0.030513  0.015030 -0.008760)
 33:    659.02   0.001916    9.68  0.000907  ( 0.020032  0.009890  0.020200)
 34:    701.57   0.000474    2.39  0.000211  (-0.009760  0.004874  0.009574)
 35:    729.94   0.002031   10.26  0.000868  ( 0.009514 -0.016195  0.022700)
 36:    735.94   0.013762   69.55  0.005836  (-0.030021 -0.064032  0.028884)
 37:    739.09   0.010470   52.91  0.004421  ( 0.056294 -0.011523  0.033453)
 38:    773.24   0.004710   23.80  0.001901  ( 0.012143 -0.017271  0.038148)
 39:    800.82   0.000255    1.29  0.000100  ( 0.003052  0.009321 -0.001823)
 40:    823.82   0.003912   19.77  0.001482  ( 0.020631 -0.003383  0.032322)
 41:    833.31   0.003886   19.64  0.001455  (-0.020782 -0.000318  0.031991)
 42:    853.82   0.010732   54.24  0.003923  ( 0.007161 -0.039411  0.048147)
 43:    868.07   0.013352   67.48  0.004800  ( 0.015016 -0.060707  0.029820)
 44:    870.64   0.001144    5.78  0.000410  ( 0.005970  0.019342  0.000392)
 45:    921.98   0.000661    3.34  0.000224  (-0.004743  0.012756  0.006216)
 46:    965.50   0.000112    0.57  0.000036  (-0.000583  0.004215 -0.004253)
 47:    979.49   0.000078    0.39  0.000025  (-0.000020 -0.002655  0.004224)
 48:    987.93   0.000139    0.70  0.000044  (-0.000368 -0.002677  0.006047)
 49:    995.41   0.004933   24.93  0.001547  (-0.018017 -0.002544  0.034864)
 50:   1000.87   0.000199    1.01  0.000062  ( 0.000675 -0.005548  0.005560)
 51:   1029.09   0.009068   45.83  0.002750  ( 0.044455 -0.027786 -0.001243)
 52:   1046.63   0.008692   43.92  0.002591  ( 0.027614 -0.042760 -0.000683)
 53:   1082.93   0.004123   20.84  0.001188  ( 0.010779 -0.032618 -0.002830)
 54:   1084.27   0.001242    6.28  0.000357  (-0.002522  0.016259 -0.009312)
 55:   1107.98   0.000573    2.89  0.000161  (-0.012038 -0.003399 -0.002186)
 56:   1134.55   0.001307    6.60  0.000359  (-0.008651  0.016486  0.003572)
 57:   1148.06   0.006737   34.04  0.001831  (-0.008945 -0.037861 -0.017823)
 58:   1161.55   0.196667  993.87  0.052837  (-0.106197  0.173163  0.107580)
 59:   1172.64   0.003455   17.46  0.000919  (-0.008432  0.022702  0.018245)
 60:   1181.17   0.005747   29.04  0.001518  (-0.010600  0.034360  0.015009)
 61:   1188.14   0.003516   17.77  0.000923  ( 0.014105 -0.026483 -0.004814)
 62:   1220.96   0.004340   21.93  0.001109  (-0.008769  0.027998  0.015763)
 63:   1225.56   0.009220   46.59  0.002348  (-0.022891  0.038319  0.018848)
 64:   1257.68   0.029065  146.88  0.007212  (-0.050591  0.063574  0.024711)
 65:   1272.06   0.004488   22.68  0.001101  (-0.011865  0.029678  0.008907)
 66:   1285.47   0.003009   15.21  0.000731  ( 0.003791  0.021469 -0.015977)
 67:   1324.22   0.002953   14.92  0.000696  ( 0.017822 -0.015239 -0.012081)
 68:   1342.46   0.006387   32.28  0.001485  (-0.021422  0.025148  0.019836)
 69:   1355.89   0.001932    9.76  0.000445  ( 0.015275 -0.010848 -0.009674)
 70:   1412.23   0.022202  112.20  0.004906  (-0.006502 -0.057230 -0.039856)
 71:   1422.50   0.045993  232.43  0.010090  (-0.047983  0.076891  0.043305)
 72:   1447.53   0.003629   18.34  0.000782  ( 0.002741  0.004673 -0.027442)
 73:   1452.98   0.002103   10.63  0.000452  (-0.002243 -0.018342 -0.010502)
 74:   1457.25   0.005756   29.09  0.001233  (-0.000572 -0.027629 -0.021656)
 75:   1470.59   0.008081   40.84  0.001715  ( 0.027963 -0.027579  0.013129)
 76:   1478.07   0.002940   14.86  0.000621  (-0.016207 -0.011599  0.014950)
 77:   1492.91   0.000140    0.71  0.000029  ( 0.002458  0.001750 -0.004493)
 78:   1501.55   0.005597   28.29  0.001163  (-0.033377 -0.002075 -0.006699)
 79:   1505.30   0.004812   24.32  0.000998  ( 0.012513  0.022319 -0.018518)
 80:   1531.65   0.001395    7.05  0.000284  ( 0.013102 -0.008435  0.006430)
 81:   1537.07   0.014657   74.07  0.002976  ( 0.013884 -0.052465 -0.005523)
 82:   1548.62   0.010283   51.96  0.002072  (-0.024490  0.033693  0.018360)
 83:   1601.23   0.007982   40.34  0.001556  ( 0.037959 -0.004240 -0.009836)
 84:   1633.10   0.010900   55.08  0.002083  (-0.008209 -0.033629 -0.029740)
 85:   1647.00   0.001252    6.33  0.000237  (-0.007652 -0.009113 -0.009782)
 86:   1661.69   0.004287   21.66  0.000805  ( 0.027426  0.007270  0.000243)
 87:   1743.14   0.176199  890.44  0.031544  ( 0.036868  0.006198 -0.173627)
 88:   3024.30   0.007604   38.43  0.000785  (-0.000607  0.026131 -0.010071)
 89:   3029.42   0.024519  123.91  0.002526  ( 0.001761 -0.027184 -0.042233)
 90:   3074.73   0.020079  101.47  0.002038  (-0.044771 -0.005420  0.002013)
 91:   3080.13   0.003239   16.37  0.000328  (-0.018080  0.001065  0.000344)
 92:   3150.90   0.009503   48.03  0.000941  (-0.004540  0.021498  0.021411)
 93:   3169.78   0.000290    1.47  0.000029  ( 0.004874  0.001955  0.001010)
 94:   3172.16   0.001733    8.76  0.000170  ( 0.000304 -0.004038  0.012412)
 95:   3176.28   0.001278    6.46  0.000126  (-0.009426  0.003329  0.005064)
 96:   3176.92   0.001516    7.66  0.000149  ( 0.011723 -0.001473 -0.003047)
 97:   3186.61   0.004952   25.03  0.000485  (-0.019146  0.006147  0.008977)
 98:   3189.46   0.009717   49.10  0.000951  (-0.008870  0.020866  0.020896)
 99:   3192.41   0.001816    9.18  0.000178  (-0.003857  0.012727  0.000836)
100:   3201.09   0.010270   51.90  0.001001  ( 0.023071  0.017666  0.012524)
101:   3201.36   0.001088    5.50  0.000106  (-0.005328 -0.006530 -0.005919)

--------------------------
THERMOCHEMISTRY AT 298.15K
--------------------------

Temperature         ...   298.15 K
Pressure            ...     1.00 atm
Total Mass          ...   266.30 AMU
Quasi RRHO          ...     True
Cut-Off Frequency   ...     1.00 cm^-1

Throughout the following assumptions are being made:
  (1) The electronic state is orbitally nondegenerate
  (2) There are no thermally accessible electronically excited states
  (3) Hindered rotations indicated by low frequency modes are not
      treated as such but are treated as vibrations and this may
      cause some error
  (4) All equations used are the standard statistical mechanics
      equations for an ideal gas
  (5) All vibrations are strictly harmonic

freq.       9.48  E(vib)   ...       0.58
freq.      36.56  E(vib)   ...       0.54
freq.      49.46  E(vib)   ...       0.52
freq.      59.25  E(vib)   ...       0.51
freq.      97.19  E(vib)   ...       0.46
freq.     103.76  E(vib)   ...       0.46
freq.     112.58  E(vib)   ...       0.45
freq.     131.19  E(vib)   ...       0.42
freq.     204.07  E(vib)   ...       0.35
freq.     220.12  E(vib)   ...       0.33
freq.     228.03  E(vib)   ...       0.33
freq.     232.77  E(vib)   ...       0.32
freq.     246.59  E(vib)   ...       0.31
freq.     297.06  E(vib)   ...       0.27
freq.     366.74  E(vib)   ...       0.22
freq.     376.36  E(vib)   ...       0.21
freq.     409.59  E(vib)   ...       0.19
freq.     421.03  E(vib)   ...       0.18
freq.     463.45  E(vib)   ...       0.16
freq.     488.85  E(vib)   ...       0.15
freq.     509.54  E(vib)   ...       0.14
freq.     519.39  E(vib)   ...       0.13
freq.     524.84  E(vib)   ...       0.13
freq.     561.35  E(vib)   ...       0.11
freq.     582.08  E(vib)   ...       0.11
freq.     607.31  E(vib)   ...       0.10
freq.     623.10  E(vib)   ...       0.09
freq.     659.02  E(vib)   ...       0.08
freq.     701.57  E(vib)   ...       0.07
freq.     729.94  E(vib)   ...       0.06
freq.     735.94  E(vib)   ...       0.06
freq.     739.09  E(vib)   ...       0.06
freq.     773.24  E(vib)   ...       0.05
freq.     800.82  E(vib)   ...       0.05
freq.     823.82  E(vib)   ...       0.05
freq.     833.31  E(vib)   ...       0.04
freq.     853.82  E(vib)   ...       0.04
freq.     868.07  E(vib)   ...       0.04
freq.     870.64  E(vib)   ...       0.04
freq.     921.98  E(vib)   ...       0.03
freq.     965.50  E(vib)   ...       0.03
freq.     979.49  E(vib)   ...       0.03
freq.     987.93  E(vib)   ...       0.02
freq.     995.41  E(vib)   ...       0.02
freq.    1000.87  E(vib)   ...       0.02
freq.    1029.09  E(vib)   ...       0.02
freq.    1046.63  E(vib)   ...       0.02
freq.    1082.93  E(vib)   ...       0.02
freq.    1084.27  E(vib)   ...       0.02
freq.    1107.98  E(vib)   ...       0.02
freq.    1134.55  E(vib)   ...       0.01
freq.    1148.06  E(vib)   ...       0.01
freq.    1161.55  E(vib)   ...       0.01
freq.    1172.64  E(vib)   ...       0.01
freq.    1181.17  E(vib)   ...       0.01
freq.    1188.14  E(vib)   ...       0.01
freq.    1220.96  E(vib)   ...       0.01
freq.    1225.56  E(vib)   ...       0.01
freq.    1257.68  E(vib)   ...       0.01
freq.    1272.06  E(vib)   ...       0.01
freq.    1285.47  E(vib)   ...       0.01
freq.    1324.22  E(vib)   ...       0.01
freq.    1342.46  E(vib)   ...       0.01
freq.    1355.89  E(vib)   ...       0.01
freq.    1412.23  E(vib)   ...       0.00
freq.    1422.50  E(vib)   ...       0.00
freq.    1447.53  E(vib)   ...       0.00
freq.    1452.98  E(vib)   ...       0.00
freq.    1457.25  E(vib)   ...       0.00
freq.    1470.59  E(vib)   ...       0.00
freq.    1478.07  E(vib)   ...       0.00
freq.    1492.91  E(vib)   ...       0.00
freq.    1501.55  E(vib)   ...       0.00
freq.    1505.30  E(vib)   ...       0.00
freq.    1531.65  E(vib)   ...       0.00
freq.    1537.07  E(vib)   ...       0.00
freq.    1548.62  E(vib)   ...       0.00
freq.    1601.23  E(vib)   ...       0.00
freq.    1633.10  E(vib)   ...       0.00
freq.    1647.00  E(vib)   ...       0.00
freq.    1661.69  E(vib)   ...       0.00
freq.    1743.14  E(vib)   ...       0.00
freq.    3024.30  E(vib)   ...       0.00
freq.    3029.42  E(vib)   ...       0.00
freq.    3074.73  E(vib)   ...       0.00
freq.    3080.13  E(vib)   ...       0.00
freq.    3150.90  E(vib)   ...       0.00
freq.    3169.78  E(vib)   ...       0.00
freq.    3172.16  E(vib)   ...       0.00
freq.    3176.28  E(vib)   ...       0.00
freq.    3176.92  E(vib)   ...       0.00
freq.    3186.61  E(vib)   ...       0.00
freq.    3189.46  E(vib)   ...       0.00
freq.    3192.41  E(vib)   ...       0.00
freq.    3201.09  E(vib)   ...       0.00
freq.    3201.36  E(vib)   ...       0.00

------------
INNER ENERGY
------------

The inner energy is: U= E(el) + E(ZPE) + E(vib) + E(rot) + E(trans)
    E(el)   - is the total energy from the electronic structure calculation
              = E(kin-el) + E(nuc-el) + E(el-el) + E(nuc-nuc)
    E(ZPE)  - the the zero temperature vibrational energy from the frequency calculation
    E(vib)  - the the finite temperature correction to E(ZPE) due to population
              of excited vibrational states
    E(rot)  - is the rotational thermal energy
    E(trans)- is the translational thermal energy

Summary of contributions to the inner energy U:
Electronic energy                ...   -878.32939492 Eh
Zero point energy                ...      0.26862663 Eh     168.57 kcal/mol
Thermal vibrational correction   ...      0.01407579 Eh       8.83 kcal/mol
Thermal rotational correction    ...      0.00141627 Eh       0.89 kcal/mol
Thermal translational correction ...      0.00141627 Eh       0.89 kcal/mol
-----------------------------------------------------------------------
Total thermal energy                   -878.04385997 Eh

Summary of corrections to the electronic energy:
(perhaps to be used in another calculation)
Total thermal correction                  0.01690833 Eh      10.61 kcal/mol
Non-thermal (ZPE) correction              0.26862663 Eh     168.57 kcal/mol
-----------------------------------------------------------------------
Total correction                          0.28553495 Eh     179.18 kcal/mol

--------
ENTHALPY
--------

The enthalpy is H = U + kB*T
                kB is Boltzmann's constant
Total thermal energy              ...   -878.04385997 Eh
Thermal Enthalpy correction       ...      0.00094421 Eh       0.59 kcal/mol
-----------------------------------------------------------------------
Total Enthalpy                    ...   -878.04291576 Eh

Note: Only C1 symmetry has been detected, increase convergence thresholds
      if your molecule has a higher symmetry. Symmetry factor of 1.0 is

Rotational constants in cm-1:     0.016106     0.011071     0.007155

                             ****ORCA TERMINATED NORMALLY****
TOTAL RUN TIME: 0 days 2 hours 9 minutes 17 seconds 249 msec
