                         Program Version 6.0.1  -  RELEASE   -
|  1> ! B3LYP/G OPT FREQ 6-311G* CPCM(Water)
|  2>
|  3> %tddft
|  4>     NRoots 3
|  5>     IRoot 1
|  6> end
|  7>
|  8> * xyz 0 1
|  9> C  -3.16652765140291236889 -0.74306232658536242042 -0.23260395303284364665
| 10> C  -2.72502454250235981448 -1.66835731868220293883 -1.17662178665978212067
| 11> C  -1.40623478636057530622 -1.69112794347565587039 -1.54777778511331742806
| 12> C  -2.28650856148217096475 0.15779322876926138441 0.32640277674306772404
| 13> C  -0.91891858506391743688 0.15805687605514262550 -0.02839167910586548604
| 14> O  -2.72215076724391646934 1.04735336039097437499 1.29149978530245812536
| 15> C  -0.48707059912322980821 -0.79029755321136074819 -0.98675870095761919476
| 16> C  0.88020943849359456479 -0.82123664581459432377 -1.38866281531911361924
| 17> C  1.78383560141726471571 0.04548622324398410299 -0.87957862196009617417
| 18> C  0.04582809595598469343 1.07406309668203370222 0.52663740205739550948
| 19> C  1.39247720755366621859 1.01266127853375720314 0.08637011612276701555
| 20> N  -0.34306268141382489922 1.96651042013853727397 1.44913019498465334145
| 21> C  0.53514515350655056380 2.80340975323118879459 1.94507327960850728843
| 22> C  1.88174560364809906332 2.83192402822156363840 1.57281327076481480809
| 23> C  2.30884696868122674118 1.92346947352118791130 0.63617918850486021576
| 24> C  -3.78249178808879449321 1.85373052835113272252 1.03360257547680189916
| 25> O  -4.39397063681265187540 1.85503217363189820688 -0.02679771744772319053
| 26> N  -4.07494699173007823845 2.65625601958666024416 2.05995409818673813618
| 27> C  -5.22418360989218211188 3.53188450322609615029 1.93486386455562087150
| 28> C  -3.31974774128029936904 2.68573648305847001438 3.29395401163845980008
| 29> H  -2.36085820228825804534 2.19977109021847860859 3.13690766923864172711
| 30> H  -3.86619812394461570548 2.17231614813560236499 4.08697906476599825965
| 31> H  -3.15436805346156523555 3.72268772631006861218 3.58138006605286429718
| 32> H  -5.30779196725147173197 4.12791513613782168335 2.83669691066076889996
| 33> H  -6.13399964537575659307 2.94575921272473006951 1.79473352096989602344
| 34> H  -5.10825102351954551949 4.18282087933615454034 1.06688750351485062140
| 35> H  -1.05517894320453997636 -2.40237843274744733435 -2.27916465716426630550
| 36> H  -4.20454839835968297024 -0.71597701528234058976 0.06146110436047669268
| 37> H  -3.43090722900907429960 -2.36158777327065028118 -1.60559001264515854857
| 38> H  1.17238144801934884853 -1.55943501124756234155 -2.11961164592901418757
| 39> H  2.81794377535794193790 0.02439017771021023684 -1.18950073989867144419
| 40> H  0.14814379508631025928 3.49266263713333646734 2.68385392126646271649
| 41> H  2.55528279623241250107 3.54647667123518406385 2.01728311664254844615
| 42> H  3.33926065747511913173 1.89312290188388177015 0.31277667871745656880
| 43> *
| 44>
| 45>                          ****END OF INPUT****
 Total Charge           Charge          ....    0
 Multiplicity           Mult            ....    1
 Number of Electrons    NEL             ....  140
FINAL SINGLE POINT ENERGY      -878.176914686962
FINAL SINGLE POINT ENERGY      -878.186511011260
FINAL SINGLE POINT ENERGY      -878.188210448445
FINAL SINGLE POINT ENERGY      -878.188754450645
FINAL SINGLE POINT ENERGY      -878.188969660121
FINAL SINGLE POINT ENERGY      -878.189142636573
FINAL SINGLE POINT ENERGY      -878.189230534262
FINAL SINGLE POINT ENERGY      -878.189300863982
FINAL SINGLE POINT ENERGY      -878.189340298830
FINAL SINGLE POINT ENERGY      -878.189384373188
FINAL SINGLE POINT ENERGY      -878.189807676348
FINAL SINGLE POINT ENERGY      -878.189913584339
FINAL SINGLE POINT ENERGY      -878.190018905215
FINAL SINGLE POINT ENERGY      -878.190049927837
FINAL SINGLE POINT ENERGY      -878.190103845496
FINAL SINGLE POINT ENERGY      -878.190133269457
FINAL SINGLE POINT ENERGY      -878.190140444822
FINAL SINGLE POINT ENERGY      -878.190146212041
FINAL SINGLE POINT ENERGY      -878.190146228441
                    ***********************HURRAY********************

CARTESIAN COORDINATES (ANGSTROEM)
---------------------------------
  C     -3.200056   -0.479962   -0.447746
  C     -2.772410   -1.498860   -1.304160
  C     -1.412270   -1.675521   -1.525650
  C     -2.265972    0.372003    0.166765
  C     -0.859323    0.284522   -0.091549
  O     -2.689652    1.222100    1.140897
  C     -0.441143   -0.824085   -0.930195
  C      0.922309   -1.036712   -1.173049
  C      1.883123   -0.187558   -0.621698
  C      0.119514    1.234958    0.371613
  C      1.522423    0.951534    0.126248
  N     -0.263692    2.370158    1.016665
  C      0.695154    3.183728    1.511264
  C      2.062753    2.949720    1.395740
  C      2.493628    1.833260    0.671139
  C     -3.816794    2.024237    0.966915
  O     -4.334740    2.185658   -0.119840
  N     -4.177383    2.593992    2.131844
  C     -5.347619    3.466443    2.156407
  C     -3.564914    2.305042    3.427473
  H     -2.605906    1.816525    3.297113
  H     -4.220016    1.663047    4.024354
  H     -3.416378    3.244460    3.963722
  H     -5.087781    4.413141    2.635413
  H     -6.157223    2.997899    2.723969
  H     -5.683867    3.654811    1.141450
  H     -1.065986   -2.477765   -2.168680
  H     -4.247619   -0.374751   -0.201477
  H     -3.496166   -2.163884   -1.759679
  H      1.226446   -1.873316   -1.792758
  H      2.937125   -0.395671   -0.778458
  H      0.335681    4.086917    1.998724
  H      2.770165    3.654689    1.818985
  H      3.546747    1.637071    0.502617

 Multiplicity           Mult            ....    1
 Number of Electrons    NEL             ....  140
 Basis Dimension        Dim             ....  402

ORBITAL ENERGIES
----------------

  NO   OCC          E(Eh)            E(eV)
   0   2.0000     -19.168369      -521.5978
   1   2.0000     -19.096540      -519.6433
   2   2.0000     -14.351450      -390.5228
   3   2.0000     -14.314674      -389.5221
   4   2.0000     -10.325166      -280.9621
   5   2.0000     -10.251921      -278.9690
   6   2.0000     -10.227865      -278.3143
   7   2.0000     -10.212895      -277.9070
   8   2.0000     -10.201077      -277.5854
   9   2.0000     -10.198511      -277.5156
  10   2.0000     -10.197851      -277.4976
  11   2.0000     -10.197766      -277.4953
  12   2.0000     -10.196810      -277.4693
  13   2.0000     -10.195897      -277.4445
  14   2.0000     -10.185384      -277.1584
  15   2.0000     -10.185269      -277.1553
  16   2.0000     -10.184479      -277.1338
  17   2.0000     -10.183733      -277.1135
  18   2.0000     -10.180783      -277.0332
  19   2.0000     -10.179420      -276.9961
  20   2.0000      -1.119260       -30.4566
  21   2.0000      -1.031821       -28.0773
  22   2.0000      -0.951439       -25.8900
  23   2.0000      -0.946200       -25.7474
  24   2.0000      -0.876312       -23.8456
  25   2.0000      -0.834754       -22.7148
  26   2.0000      -0.805498       -21.9187
  27   2.0000      -0.782766       -21.3002
  28   2.0000      -0.753375       -20.5004
  29   2.0000      -0.738773       -20.1030
  30   2.0000      -0.723872       -19.6976
  31   2.0000      -0.708332       -19.2747
  32   2.0000      -0.656919       -17.8757
  33   2.0000      -0.650754       -17.7079
  34   2.0000      -0.635382       -17.2896
  35   2.0000      -0.612393       -16.6641
  36   2.0000      -0.578770       -15.7491
  37   2.0000      -0.545008       -14.8304
  38   2.0000      -0.535710       -14.5774
  39   2.0000      -0.529786       -14.4162
  40   2.0000      -0.517884       -14.0923
  41   2.0000      -0.495232       -13.4759
  42   2.0000      -0.492772       -13.4090
  43   2.0000      -0.483822       -13.1655
  44   2.0000      -0.479687       -13.0529
  45   2.0000      -0.465152       -12.6574
  46   2.0000      -0.446203       -12.1418
  47   2.0000      -0.444066       -12.0836
  48   2.0000      -0.438115       -11.9217
  49   2.0000      -0.428407       -11.6576
  50   2.0000      -0.419577       -11.4173
  51   2.0000      -0.411797       -11.2056
  52   2.0000      -0.409885       -11.1535
  53   2.0000      -0.407780       -11.0963
  54   2.0000      -0.406309       -11.0562
  55   2.0000      -0.403738       -10.9863
  56   2.0000      -0.388841       -10.5809
  57   2.0000      -0.384233       -10.4555
  58   2.0000      -0.373928       -10.1751
  59   2.0000      -0.366129        -9.9629
  60   2.0000      -0.355777        -9.6812
  61   2.0000      -0.339390        -9.2353
  62   2.0000      -0.325293        -8.8517
  63   2.0000      -0.307900        -8.3784
  64   2.0000      -0.291740        -7.9387
  65   2.0000      -0.276383        -7.5208
  66   2.0000      -0.261732        -7.1221
  67   2.0000      -0.254674        -6.9300
  68   2.0000      -0.243743        -6.6326
  69   2.0000      -0.218745        -5.9523
  70   0.0000      -0.068575        -1.8660
  71   0.0000      -0.055372        -1.5067
  72   0.0000      -0.013019        -0.3543
  73   0.0000       0.012513         0.3405
  74   0.0000       0.036925         1.0048

----------------------------------------------------------------------------------------------------
                     ABSORPTION SPECTRUM VIA TRANSITION ELECTRIC DIPOLE MOMENTS
----------------------------------------------------------------------------------------------------
     Transition      Energy     Energy  Wavelength fosc(D2)      D2        DX        DY        DZ
                      (eV)      (cm-1)    (nm)                 (au**2)    (au)      (au)      (au)
----------------------------------------------------------------------------------------------------
  0-1A  ->  1-1A    3.515223   28352.2   352.7   0.287103966   3.33371   1.46517   0.94468   0.54274
  0-1A  ->  2-1A    3.914952   31576.2   316.7   0.179259383   1.86895   0.33709   1.09311   0.74862
  0-1A  ->  3-1A    4.140772   33397.6   299.4   0.012479942   0.12302   0.30532   0.08755  -0.14877

MULLIKEN ATOMIC CHARGES
-----------------------
   0 C :   -0.204294
   1 C :   -0.226925
   2 C :   -0.175949
   3 C :    0.218739
   4 C :   -0.016924
   5 O :   -0.321177
   6 C :   -0.002654
   7 C :   -0.222875
   8 C :   -0.241079
   9 C :    0.132225
  10 C :    0.009303
  11 N :   -0.403838
  12 C :   -0.084856
  13 C :   -0.303058
  14 C :   -0.189919
  15 C :    0.540480
  16 O :   -0.430752
  17 N :   -0.330745
  18 C :   -0.523544
  19 C :   -0.520511
  20 H :    0.250745
  21 H :    0.239355
  22 H :    0.240880
  23 H :    0.243347
  24 H :    0.240878
  25 H :    0.241402
  26 H :    0.246472
  27 H :    0.252619
  28 H :    0.238684
  29 H :    0.234972
  30 H :    0.228783
  31 H :    0.209841
  32 H :    0.213790
  33 H :    0.216586
Sum of atomic charges:    0.0000000

LOEWDIN ATOMIC CHARGES
----------------------
   0 C :   -0.101580
   1 C :   -0.117394
   2 C :   -0.028873
   3 C :    0.026714
   4 C :   -0.068362
   5 O :    0.098542
   6 C :   -0.049372
   7 C :   -0.087668
   8 C :   -0.092049
   9 C :   -0.019019
  10 C :   -0.042410
  11 N :   -0.095088
  12 C :   -0.125926
  13 C :   -0.152120
  14 C :   -0.151453
  15 C :   -0.100789
  16 O :   -0.163578
  17 N :    0.047232
  18 C :   -0.237248
  19 C :   -0.239997
  20 H :    0.120110
  21 H :    0.116999
  22 H :    0.119911
  23 H :    0.119805
  24 H :    0.118095
  25 H :    0.120767
  26 H :    0.133934
  27 H :    0.130850
  28 H :    0.130489
  29 H :    0.127910
  30 H :    0.124351
  31 H :    0.102880
  32 H :    0.118184
  33 H :    0.116154

  Mayer bond orders larger than 0.100000
B(  0-C ,  1-C ) :   1.3536 B(  0-C ,  3-C ) :   1.3274 B(  0-C , 27-H ) :   0.9016
B(  1-C ,  2-C ) :   1.4133 B(  1-C , 28-H ) :   0.9229 B(  2-C ,  6-C ) :   1.2468
B(  2-C , 26-H ) :   0.9146 B(  3-C ,  4-C ) :   1.2077 B(  3-C ,  5-O ) :   1.0533
B(  4-C ,  6-C ) :   1.2370 B(  4-C ,  9-C ) :   1.2542 B(  5-O , 15-C ) :   0.9766
B(  6-C ,  7-C ) :   1.3458 B(  7-C ,  8-C ) :   1.3756 B(  7-C , 29-H ) :   0.9187
B(  8-C , 10-C ) :   1.3041 B(  8-C , 30-H ) :   0.9241 B(  9-C , 10-C ) :   1.1403
B(  9-C , 11-N ) :   1.4431 B( 10-C , 14-C ) :   1.2596 B( 11-N , 12-C ) :   1.3910
B( 12-C , 13-C ) :   1.4032 B( 12-C , 31-H ) :   0.9337 B( 13-C , 14-C ) :   1.3453
B( 13-C , 32-H ) :   0.9270 B( 14-C , 33-H ) :   0.9333 B( 15-C , 16-O ) :   1.8941
B( 15-C , 17-N ) :   1.2351 B( 17-N , 18-C ) :   0.9525 B( 17-N , 19-C ) :   0.9423
B( 18-C , 23-H ) :   0.9172 B( 18-C , 24-H ) :   0.9159 B( 18-C , 25-H ) :   0.9141
B( 19-C , 20-H ) :   0.9097 B( 19-C , 21-H ) :   0.9133 B( 19-C , 22-H ) :   0.9174

FINAL SINGLE POINT ENERGY      -878.190144580699

DIPOLE MOMENT
-------------

Method             : TDA/CIS
Type of density    : Electron Density
Level              : Relaxed density
State              :   1
Multiplicity       :   1
Irrep              :   0
Energy             :     0.0000000000000000 Eh
Relativity type    :
Basis              : AO
                                X                 Y                 Z
Electronic contribution:      4.916320513      -5.172918596      -7.058285187
Nuclear contribution   :     -5.536245833       3.935281797       7.934328844
                        -----------------------------------------
Total Dipole Moment    :     -0.619925320      -1.237636799       0.876043657
                        -----------------------------------------
Magnitude (a.u.)       :      1.638140634
Magnitude (Debye)      :      4.163822588

VIBRATIONAL FREQUENCIES
-----------------------

Scaling factor for frequencies =  1.000000000  (already applied!)

     0:       0.00 cm**-1
     1:       0.00 cm**-1
     2:       0.00 cm**-1
     3:       0.00 cm**-1
     4:       0.00 cm**-1
     5:       0.00 cm**-1
     6:      -9.14 cm**-1  ***imaginary mode***
     7:      10.95 cm**-1
     8:      38.66 cm**-1
     9:      83.00 cm**-1
    10:      90.65 cm**-1
    11:      99.23 cm**-1
    12:     105.66 cm**-1
    13:     141.98 cm**-1
    14:     182.29 cm**-1
    15:     202.10 cm**-1
    16:     215.07 cm**-1
    17:     231.84 cm**-1
    18:     242.72 cm**-1
    19:     257.39 cm**-1
    20:     339.32 cm**-1
    21:     357.42 cm**-1
    22:     381.31 cm**-1
    23:     400.77 cm**-1
    24:     441.86 cm**-1
    25:     456.96 cm**-1
    26:     469.11 cm**-1
    27:     490.59 cm**-1
    28:     501.63 cm**-1
    29:     520.56 cm**-1
    30:     534.90 cm**-1
    31:     580.56 cm**-1
    32:     599.24 cm**-1
    33:     624.12 cm**-1
    34:     658.57 cm**-1
    35:     684.20 cm**-1
    36:     692.31 cm**-1
    37:     703.32 cm**-1
    38:     739.52 cm**-1
    39:     741.50 cm**-1
    40:     775.40 cm**-1
    41:     806.64 cm**-1
    42:     812.48 cm**-1
    43:     821.14 cm**-1
    44:     830.06 cm**-1
    45:     842.71 cm**-1
    46:     882.65 cm**-1
    47:     911.75 cm**-1
    48:     926.38 cm**-1
    49:     942.46 cm**-1
    50:     971.70 cm**-1
    51:     987.44 cm**-1
    52:    1018.82 cm**-1
    53:    1073.34 cm**-1
    54:    1083.59 cm**-1
    55:    1083.98 cm**-1
    56:    1108.27 cm**-1
    57:    1118.56 cm**-1
    58:    1130.69 cm**-1
    59:    1140.14 cm**-1
    60:    1173.22 cm**-1
    61:    1186.09 cm**-1
    62:    1196.67 cm**-1
    63:    1204.20 cm**-1
    64:    1254.15 cm**-1
    65:    1257.19 cm**-1
    66:    1276.32 cm**-1
    67:    1283.58 cm**-1
    68:    1326.66 cm**-1
    69:    1363.22 cm**-1
    70:    1377.68 cm**-1
    71:    1406.52 cm**-1
    72:    1413.74 cm**-1
    73:    1426.80 cm**-1
    74:    1446.48 cm**-1
    75:    1450.37 cm**-1
    76:    1460.05 cm**-1
    77:    1473.05 cm**-1
    78:    1490.40 cm**-1
    79:    1500.21 cm**-1
    80:    1504.19 cm**-1
    81:    1504.78 cm**-1
    82:    1512.11 cm**-1
    83:    1535.57 cm**-1
    84:    1546.42 cm**-1
    85:    1554.75 cm**-1
    86:    1565.55 cm**-1
    87:    1768.78 cm**-1
    88:    3028.13 cm**-1
    89:    3034.30 cm**-1
    90:    3094.37 cm**-1
    91:    3101.42 cm**-1
    92:    3144.52 cm**-1
    93:    3176.80 cm**-1
    94:    3180.37 cm**-1
    95:    3186.03 cm**-1
    96:    3191.01 cm**-1
    97:    3191.96 cm**-1
    98:    3197.24 cm**-1
    99:    3200.91 cm**-1
   100:    3208.61 cm**-1
   101:    3229.57 cm**-1

IR SPECTRUM
-----------

 Mode   freq       eps      Int      T**2         TX        TY        TZ
       cm**-1   L/(mol*cm) km/mol    a.u.
----------------------------------------------------------------------------
  7:     10.95   0.000948    4.79  0.027013  (-0.124615 -0.105452 -0.019084)
  8:     38.66   0.000100    0.50  0.000804  (-0.009829  0.018051 -0.019529)
  9:     83.00   0.000641    3.24  0.002409  ( 0.034395  0.015877 -0.031203)
 10:     90.65   0.000715    3.61  0.002460  (-0.005576 -0.028788  0.040001)
 11:     99.23   0.000438    2.21  0.001377  ( 0.028101 -0.014783  0.019212)
 12:    105.66   0.000821    4.15  0.002423  (-0.004096  0.038521 -0.030376)
 13:    141.98   0.000107    0.54  0.000236  (-0.007813 -0.013155  0.001364)
 14:    182.29   0.000753    3.81  0.001290  (-0.024054  0.007944  0.025455)
 15:    202.10   0.001050    5.31  0.001622  ( 0.008037 -0.019685  0.034202)
 16:    215.07   0.002166   10.94  0.003142  (-0.044538  0.033753  0.004384)
 17:    231.84   0.000726    3.67  0.000978  ( 0.012670  0.027541  0.007667)
 18:    242.72   0.001760    8.89  0.002263  ( 0.003405 -0.046440 -0.009710)
 19:    257.39   0.000134    0.68  0.000163  ( 0.008832  0.008042  0.004476)
 20:    339.32   0.002189   11.06  0.002013  ( 0.033790 -0.025541 -0.014795)
 21:    357.42   0.000042    0.21  0.000036  ( 0.000521  0.006009  0.000340)
 22:    381.31   0.002794   14.12  0.002287  ( 0.035343 -0.027688 -0.016458)
 23:    400.77   0.001365    6.90  0.001063  ( 0.017805 -0.021653 -0.016638)
 24:    441.86   0.001686    8.52  0.001191  (-0.031344  0.010043 -0.010363)
 25:    456.96   0.000314    1.59  0.000215  (-0.002851 -0.004953 -0.013489)
 26:    469.11   0.001881    9.51  0.001252  (-0.026300  0.020081 -0.012517)
 27:    490.59   0.002816   14.23  0.001791  ( 0.032854 -0.016475 -0.020993)
 28:    501.63   0.000626    3.16  0.000389  ( 0.006936  0.018463 -0.000450)
 29:    520.56   0.001316    6.65  0.000789  (-0.026169 -0.000776  0.010184)
 30:    534.90   0.001430    7.23  0.000834  (-0.025375 -0.008273 -0.011047)
 31:    580.56   0.001232    6.23  0.000662  ( 0.024923  0.003105 -0.005614)
 32:    599.24   0.000847    4.28  0.000441  (-0.013933 -0.015462 -0.002832)
 33:    624.12   0.004511   22.80  0.002256  ( 0.001307 -0.007506  0.046879)
 34:    658.57   0.006662   33.66  0.003157  (-0.003059 -0.042881  0.036173)
 35:    684.20   0.009325   47.12  0.004253  ( 0.022806 -0.058189  0.018628)
 36:    692.31   0.003773   19.07  0.001701  ( 0.023409 -0.004421 -0.033663)
 37:    703.32   0.001830    9.25  0.000812  ( 0.007714 -0.011479 -0.024914)
 38:    739.52   0.005095   25.75  0.002150  ( 0.038114  0.024904 -0.008781)
 39:    741.50   0.010159   51.34  0.004275  (-0.045002 -0.014352  0.045214)
 40:    775.40   0.015518   78.42  0.006245  (-0.024748 -0.005108  0.074877)
 41:    806.64   0.010902   55.10  0.004218  (-0.001672  0.015305 -0.063093)
 42:    812.48   0.002790   14.10  0.001072  ( 0.026046 -0.019426 -0.003991)
 43:    821.14   0.004573   23.11  0.001738  ( 0.015969 -0.038469  0.001709)
 44:    830.06   0.009154   46.26  0.003441  ( 0.041740 -0.040251  0.008883)
 45:    842.71   0.002952   14.92  0.001093  (-0.020399 -0.025995  0.001054)
 46:    882.65   0.001423    7.19  0.000503  (-0.012404 -0.011899  0.014407)
 47:    911.75   0.000354    1.79  0.000121  ( 0.003683 -0.008114  0.006475)
 48:    926.38   0.000044    0.22  0.000015  ( 0.002850 -0.002588  0.000100)
 49:    942.46   0.000959    4.85  0.000317  (-0.000960  0.015623 -0.008512)
 50:    971.70   0.014511   73.33  0.004660  (-0.056779  0.037597  0.004763)
 51:    987.44   0.010270   51.90  0.003246  ( 0.040678 -0.036675 -0.015683)
 52:   1018.82   0.037245  188.22  0.011408  (-0.060696  0.079054  0.038400)
 53:   1073.34   0.007800   39.42  0.002268  (-0.046185 -0.003397 -0.011091)
 54:   1083.59   0.040930  206.84  0.011787  ( 0.049724 -0.082650 -0.049839)
 55:   1083.98   0.006417   32.43  0.001847  (-0.000877 -0.028958 -0.031749)
 56:   1108.27   0.037995  192.01  0.010699  ( 0.092350 -0.033094 -0.032783)
 57:   1118.56   0.175661  887.72  0.049007  (-0.142476  0.124946  0.114437)
 58:   1130.69   0.000218    1.10  0.000060  (-0.003302  0.003016 -0.006343)
 59:   1140.14   0.000301    1.52  0.000082  (-0.003666  0.004767 -0.006805)
 60:   1173.22   0.003411   17.24  0.000907  ( 0.021259 -0.015135 -0.015046)
 61:   1186.09   0.002071   10.47  0.000545  (-0.021816  0.007500 -0.003580)
 62:   1196.67   0.024330  122.96  0.006345  ( 0.067317 -0.031425 -0.028734)
 63:   1204.20   0.006794   34.33  0.001761  ( 0.004746 -0.037414 -0.018394)
 64:   1254.15   0.001849    9.34  0.000460  ( 0.011329 -0.014793 -0.010625)
 65:   1257.19   0.031782  160.62  0.007889  (-0.073087  0.046906  0.018638)
 66:   1276.32   0.002439   12.33  0.000596  ( 0.003513 -0.024028 -0.002579)
 67:   1283.58   0.005846   29.54  0.001421  ( 0.016584 -0.023171 -0.024685)
 68:   1326.66   0.014290   72.21  0.003361  (-0.035173  0.036837  0.027698)
 69:   1363.22   0.005997   30.31  0.001373  ( 0.031975  0.016331  0.009150)
 70:   1377.68   0.003900   19.71  0.000883  ( 0.029464  0.001362  0.003669)
 71:   1406.52   0.015783   79.76  0.003502  ( 0.038780 -0.035216 -0.027527)
 72:   1413.74   0.037690  190.47  0.008320  ( 0.069983 -0.044627 -0.037820)
 73:   1426.80   0.002220   11.22  0.000486  ( 0.010920  0.012948  0.014094)
 74:   1446.48   0.001063    5.37  0.000229  ( 0.014364  0.001522 -0.004551)
 75:   1450.37   0.003510   17.74  0.000755  (-0.010143  0.003825 -0.025254)
 76:   1460.05   0.011251   56.86  0.002405  (-0.035165  0.026921  0.021057)
 77:   1473.05   0.003557   17.98  0.000754  ( 0.016651 -0.013507  0.017144)
 78:   1490.40   0.000027    0.14  0.000006  ( 0.001032  0.000219  0.002122)
 79:   1500.21   0.006913   34.94  0.001438  (-0.026838 -0.026752 -0.001454)
 80:   1504.19   0.002425   12.26  0.000503  ( 0.009137 -0.001306  0.020443)
 81:   1504.78   0.004055   20.49  0.000841  (-0.022791  0.013698 -0.011569)
 82:   1512.11   0.000974    4.92  0.000201  (-0.011144 -0.008769  0.000061)
 83:   1535.57   0.019266   97.36  0.003915  (-0.049015  0.037290  0.011057)
 84:   1546.42   0.001933    9.77  0.000390  (-0.006380  0.016474  0.008832)
 85:   1554.75   0.004151   20.98  0.000833  ( 0.027457  0.008192  0.003494)
 86:   1565.55   0.005581   28.21  0.001113  (-0.002008 -0.022490 -0.024550)
 87:   1768.78   0.182831  923.95  0.032257  (-0.022745 -0.016197 -0.177417)
 88:   3028.13   0.007610   38.46  0.000784  (-0.012192  0.015038 -0.020236)
 89:   3034.30   0.023740  119.97  0.002442  ( 0.030404 -0.008347 -0.038046)
 90:   3094.37   0.012465   62.99  0.001257  ( 0.017049  0.031044  0.001651)
 91:   3101.42   0.006159   31.13  0.000620  (-0.010588 -0.021481 -0.006799)
 92:   3144.52   0.006640   33.56  0.000659  ( 0.004541 -0.021920 -0.012565)
 93:   3176.80   0.001423    7.19  0.000140  (-0.003222  0.001170 -0.011317)
 94:   3180.37   0.001140    5.76  0.000112  (-0.010570 -0.000003  0.000386)
 95:   3186.03   0.006988   35.31  0.000684  (-0.011370  0.019709  0.012913)
 96:   3191.01   0.000257    1.30  0.000025  ( 0.004702 -0.000807 -0.001546)
 97:   3191.96   0.002718   13.74  0.000266  ( 0.014577 -0.006410 -0.003491)
 98:   3197.24   0.008929   45.13  0.000872  ( 0.027556  0.008987  0.005609)
 99:   3200.91   0.000777    3.93  0.000076  ( 0.001341 -0.007642 -0.003942)
100:   3208.61   0.010966   55.42  0.001067  ( 0.002071  0.026144  0.019460)
101:   3229.57   0.001752    8.85  0.000169  (-0.012797 -0.000312  0.002329)

--------------------------
THERMOCHEMISTRY AT 298.15K
--------------------------

Temperature         ...   298.15 K
Pressure            ...     1.00 atm
Total Mass          ...   266.30 AMU
Quasi RRHO          ...     True
Cut-Off Frequency   ...     1.00 cm^-1

Throughout the following assumptions are being made:
  (1) The electronic state is orbitally nondegenerate
  (2) There are no thermally accessible electronically excited states
  (3) Hindered rotations indicated by low frequency modes are not
      treated as such but are treated as vibrations and this may
      cause some error
  (4) All equations used are the standard statistical mechanics
      equations for an ideal gas
  (5) All vibrations are strictly harmonic

freq.      10.95  E(vib)   ...       0.58
freq.      38.66  E(vib)   ...       0.54
freq.      83.00  E(vib)   ...       0.48
freq.      90.65  E(vib)   ...       0.47
freq.      99.23  E(vib)   ...       0.46
freq.     105.66  E(vib)   ...       0.45
freq.     141.98  E(vib)   ...       0.41
freq.     182.29  E(vib)   ...       0.37
freq.     202.10  E(vib)   ...       0.35
freq.     215.07  E(vib)   ...       0.34
freq.     231.84  E(vib)   ...       0.32
freq.     242.72  E(vib)   ...       0.31
freq.     257.39  E(vib)   ...       0.30
freq.     339.32  E(vib)   ...       0.23
freq.     357.42  E(vib)   ...       0.22
freq.     381.31  E(vib)   ...       0.21
freq.     400.77  E(vib)   ...       0.19
freq.     441.86  E(vib)   ...       0.17
freq.     456.96  E(vib)   ...       0.16
freq.     469.11  E(vib)   ...       0.16
freq.     490.59  E(vib)   ...       0.15
freq.     501.63  E(vib)   ...       0.14
freq.     520.56  E(vib)   ...       0.13
freq.     534.90  E(vib)   ...       0.13
freq.     580.56  E(vib)   ...       0.11
freq.     599.24  E(vib)   ...       0.10
freq.     624.12  E(vib)   ...       0.09
freq.     658.57  E(vib)   ...       0.08
freq.     684.20  E(vib)   ...       0.07
freq.     692.31  E(vib)   ...       0.07
freq.     703.32  E(vib)   ...       0.07
freq.     739.52  E(vib)   ...       0.06
freq.     741.50  E(vib)   ...       0.06
freq.     775.40  E(vib)   ...       0.05
freq.     806.64  E(vib)   ...       0.05
freq.     812.48  E(vib)   ...       0.05
freq.     821.14  E(vib)   ...       0.05
freq.     830.06  E(vib)   ...       0.04
freq.     842.71  E(vib)   ...       0.04
freq.     882.65  E(vib)   ...       0.04
freq.     911.75  E(vib)   ...       0.03
freq.     926.38  E(vib)   ...       0.03
freq.     942.46  E(vib)   ...       0.03
freq.     971.70  E(vib)   ...       0.03
freq.     987.44  E(vib)   ...       0.02
freq.    1018.82  E(vib)   ...       0.02
freq.    1073.34  E(vib)   ...       0.02
freq.    1083.59  E(vib)   ...       0.02
freq.    1083.98  E(vib)   ...       0.02
freq.    1108.27  E(vib)   ...       0.02
freq.    1118.56  E(vib)   ...       0.01
freq.    1130.69  E(vib)   ...       0.01
freq.    1140.14  E(vib)   ...       0.01
freq.    1173.22  E(vib)   ...       0.01
freq.    1186.09  E(vib)   ...       0.01
freq.    1196.67  E(vib)   ...       0.01
freq.    1204.20  E(vib)   ...       0.01
freq.    1254.15  E(vib)   ...       0.01
freq.    1257.19  E(vib)   ...       0.01
freq.    1276.32  E(vib)   ...       0.01
freq.    1283.58  E(vib)   ...       0.01
freq.    1326.66  E(vib)   ...       0.01
freq.    1363.22  E(vib)   ...       0.01
freq.    1377.68  E(vib)   ...       0.01
freq.    1406.52  E(vib)   ...       0.00
freq.    1413.74  E(vib)   ...       0.00
freq.    1426.80  E(vib)   ...       0.00
freq.    1446.48  E(vib)   ...       0.00
freq.    1450.37  E(vib)   ...       0.00
freq.    1460.05  E(vib)   ...       0.00
freq.    1473.05  E(vib)   ...       0.00
freq.    1490.40  E(vib)   ...       0.00
freq.    1500.21  E(vib)   ...       0.00
freq.    1504.19  E(vib)   ...       0.00
freq.    1504.78  E(vib)   ...       0.00
freq.    1512.11  E(vib)   ...       0.00
freq.    1535.57  E(vib)   ...       0.00
freq.    1546.42  E(vib)   ...       0.00
freq.    1554.75  E(vib)   ...       0.00
freq.    1565.55  E(vib)   ...       0.00
freq.    1768.78  E(vib)   ...       0.00
freq.    3028.13  E(vib)   ...       0.00
freq.    3034.30  E(vib)   ...       0.00
freq.    3094.37  E(vib)   ...       0.00
freq.    3101.42  E(vib)   ...       0.00
freq.    3144.52  E(vib)   ...       0.00
freq.    3176.80  E(vib)   ...       0.00
freq.    3180.37  E(vib)   ...       0.00
freq.    3186.03  E(vib)   ...       0.00
freq.    3191.01  E(vib)   ...       0.00
freq.    3191.96  E(vib)   ...       0.00
freq.    3197.24  E(vib)   ...       0.00
freq.    3200.91  E(vib)   ...       0.00
freq.    3208.61  E(vib)   ...       0.00
freq.    3229.57  E(vib)   ...       0.00

------------
INNER ENERGY
------------

The inner energy is: U= E(el) + E(ZPE) + E(vib) + E(rot) + E(trans)
    E(el)   - is the total energy from the electronic structure calculation
              = E(kin-el) + E(nuc-el) + E(el-el) + E(nuc-nuc)
    E(ZPE)  - the the zero temperature vibrational energy from the frequency calculation
    E(vib)  - the the finite temperature correction to E(ZPE) due to population
              of excited vibrational states
    E(rot)  - is the rotational thermal energy
    E(trans)- is the translational thermal energy

Summary of contributions to the inner energy U:
Electronic energy                ...   -878.19014511 Eh
Zero point energy                ...      0.26361018 Eh     165.42 kcal/mol
Thermal vibrational correction   ...      0.01390935 Eh       8.73 kcal/mol
Thermal rotational correction    ...      0.00141627 Eh       0.89 kcal/mol
Thermal translational correction ...      0.00141627 Eh       0.89 kcal/mol
-----------------------------------------------------------------------
Total thermal energy                   -877.90979303 Eh

Summary of corrections to the electronic energy:
(perhaps to be used in another calculation)
Total thermal correction                  0.01674190 Eh      10.51 kcal/mol
Non-thermal (ZPE) correction              0.26361018 Eh     165.42 kcal/mol
-----------------------------------------------------------------------
Total correction                          0.28035207 Eh     175.92 kcal/mol

--------
ENTHALPY
--------

The enthalpy is H = U + kB*T
                kB is Boltzmann's constant
Total thermal energy              ...   -877.90979303 Eh
Thermal Enthalpy correction       ...      0.00094421 Eh       0.59 kcal/mol
-----------------------------------------------------------------------
Total Enthalpy                    ...   -877.90884882 Eh

Note: Only C1 symmetry has been detected, increase convergence thresholds
      if your molecule has a higher symmetry. Symmetry factor of 1.0 is
      used for the rotational entropy correction.

Rotational constants in cm-1:     0.016828     0.009553     0.006447

                             ****ORCA TERMINATED NORMALLY****
TOTAL RUN TIME: 1 days 19 hours 34 minutes 14 seconds 516 msec
