                         Program Version 5.0.4 -  RELEASE  -
|  1> ! B3LYP/G OPT Def2-TZVP(-f) Def2-TZVP/C Def2/J RIJCOSX TightSCF CPCM(Water) AllPop SOSCF
|  2> %maxcore 3000
|  3>
|  4> * xyz 0 1
|  5>    C       -6.51615       -1.52096        0.00263
|  6>    C       -6.58631       -2.65827       -0.99537
|  7>    C       -5.55071       -3.70833       -0.63276
|  8>    H       -6.39859       -2.27049       -1.99197
|  9>    H       -7.58141       -3.08697       -0.99087
| 10>    C       -4.19702       -3.08183       -0.37209
| 11>    H       -5.46084       -4.44946       -1.41773
| 12>    H       -5.87897       -4.23552        0.25907
| 13>    C       -4.08062       -1.70966       -0.03056
| 14>    N       -5.20021       -0.90994        0.00184
| 15>    H       -6.77323       -1.88595        0.99859
| 16>    H       -7.23227       -0.75149       -0.25199
| 17>    C       -5.12158        0.37425        0.67033
| 18>    C       -3.86776        1.11468        0.25582
| 19>    H       -5.14012        0.24768        1.75436
| 20>    H       -6.00080        0.94127        0.39705
| 21>    C       -2.63817        0.29586        0.61398
| 22>    H       -3.83133        2.08061        0.74518
| 23>    H       -3.90087        1.29019       -0.81483
| 24>    C       -2.81813       -1.15984        0.24048
| 25>    H       -2.44635        0.37179        1.68083
| 26>    H       -1.76474        0.69606        0.11629
| 27>    C       -3.06843       -3.84915       -0.44485
| 28>    C       -1.72213       -1.99520        0.16433
| 29>    C       -1.80452       -3.32935       -0.17687
| 30>    O       -0.51048       -1.45640        0.44511
| 31>    C        0.64726       -2.12350        0.40900
| 32>    C       -0.59082       -4.08868       -0.21916
| 33>    C        0.60107       -3.54223        0.05798
| 34>    O        1.63662       -1.50676        0.66086
| 35>    C        1.86902       -4.31225       -0.00028
| 36>    C        2.78667       -4.32358        1.04080
| 37>    C        2.17001       -5.08489       -1.11059
| 38>    N        3.25473       -5.82888       -1.22219
| 39>    C        4.11171       -5.83259       -0.22126
| 40>    C        3.92357       -5.09416        0.93153
| 41>    H        1.49897       -5.09375       -1.95052
| 42>    H        4.64849       -5.12892        1.72141
| 43>    H        4.98743       -6.44544       -0.33625
| 44>    H        2.60993       -3.74476        1.92655
| 45>    H       -3.15456       -4.88782       -0.70981
| 46>    H       -0.65704       -5.13072       -0.47361
| 47> *
| 48>
| 49>
| 50>                          ****END OF INPUT****
 Total Charge           Charge          ....    0
 Multiplicity           Mult            ....    1
 Number of Electrons    NEL             ....  168
FINAL SINGLE POINT ENERGY     -1033.316862504854
FINAL SINGLE POINT ENERGY     -1033.322310432175
FINAL SINGLE POINT ENERGY     -1033.322998694837
FINAL SINGLE POINT ENERGY     -1033.323285213433
FINAL SINGLE POINT ENERGY     -1033.323390606498
FINAL SINGLE POINT ENERGY     -1033.323455294238
FINAL SINGLE POINT ENERGY     -1033.323496821041
FINAL SINGLE POINT ENERGY     -1033.323539775020
FINAL SINGLE POINT ENERGY     -1033.323551160882
FINAL SINGLE POINT ENERGY     -1033.323557150935
FINAL SINGLE POINT ENERGY     -1033.323558521300
                    ***********************HURRAY********************

CARTESIAN COORDINATES (ANGSTROEM)
---------------------------------
  C     -6.556900   -1.501750   -0.084475
  C     -6.558611   -2.659523   -1.067378
  C     -5.558198   -3.713399   -0.608906
  H     -6.294088   -2.292834   -2.062853
  H     -7.563868   -3.079265   -1.126801
  C     -4.204012   -3.101163   -0.337027
  H     -5.458499   -4.509354   -1.348843
  H     -5.934171   -4.183372    0.306645
  C     -4.099273   -1.719738    0.030256
  N     -5.218889   -0.933474    0.073890
  H     -6.943804   -1.834079    0.888443
  H     -7.209482   -0.701061   -0.434570
  C     -5.162650    0.411024    0.643572
  C     -3.867508    1.110765    0.270976
  H     -5.267134    0.363222    1.736056
  H     -6.020278    0.963878    0.259725
  C     -2.673014    0.282320    0.729894
  H     -3.844876    2.100375    0.729466
  H     -3.834010    1.249362   -0.812785
  C     -2.827044   -1.165885    0.330522
  H     -2.572281    0.353898    1.818438
  H     -1.749356    0.684275    0.312515
  C     -3.066357   -3.863932   -0.424061
  C     -1.721072   -1.993661    0.242088
  C     -1.791389   -3.341376   -0.138898
  O     -0.501252   -1.446111    0.550600
  C      0.690739   -2.143685    0.497355
  C     -0.590335   -4.082682   -0.199872
  C      0.629593   -3.537093    0.101052
  O      1.689980   -1.506828    0.781870
  C      1.879527   -4.317584    0.005077
  C      2.901327   -4.240108    0.956368
  C      2.080379   -5.198469   -1.065103
  N      3.161002   -5.965921   -1.215769
  C      4.118426   -5.880213   -0.286960
  C      4.030427   -5.030904    0.808720
  H      1.329792   -5.273296   -1.845142
  H      4.831159   -4.995625    1.535735
  H      4.988825   -6.511986   -0.427164
  H      2.806456   -3.576825    1.804109
  H     -3.146000   -4.905794   -0.713746
  H     -0.651962   -5.127480   -0.482559

 Multiplicity           Mult            ....    1
 Number of Electrons    NEL             ....  168
 Basis Dimension        Dim             ....  684

ORBITAL ENERGIES
----------------

  NO   OCC          E(Eh)            E(eV)
   0   2.0000     -19.195553      -522.3376
   1   2.0000     -19.113372      -520.1013
   2   2.0000     -14.344313      -390.3286
   3   2.0000     -14.322283      -389.7291
   4   2.0000     -10.309306      -280.5305
   5   2.0000     -10.247150      -278.8391
   6   2.0000     -10.229796      -278.3669
   7   2.0000     -10.210953      -277.8542
   8   2.0000     -10.208902      -277.7984
   9   2.0000     -10.204279      -277.6725
  10   2.0000     -10.202353      -277.6202
  11   2.0000     -10.201871      -277.6070
  12   2.0000     -10.199643      -277.5464
  13   2.0000     -10.196912      -277.4721
  14   2.0000     -10.191726      -277.3310
  15   2.0000     -10.185193      -277.1532
  16   2.0000     -10.183238      -277.1000
  17   2.0000     -10.183147      -277.0975
  18   2.0000     -10.182968      -277.0926
  19   2.0000     -10.180358      -277.0216
  20   2.0000     -10.173727      -276.8412
  21   2.0000     -10.172072      -276.7962
  22   2.0000     -10.169324      -276.7214
  23   2.0000     -10.169246      -276.7193
  24   2.0000      -1.121823       -30.5263
  25   2.0000      -1.033332       -28.1184
  26   2.0000      -0.967598       -26.3297
  27   2.0000      -0.952233       -25.9116
  28   2.0000      -0.870945       -23.6996
  29   2.0000      -0.845607       -23.0101
  30   2.0000      -0.827776       -22.5249
  31   2.0000      -0.807173       -21.9643
  32   2.0000      -0.782138       -21.2830
  33   2.0000      -0.774037       -21.0626
  34   2.0000      -0.765075       -20.8188
  35   2.0000      -0.748136       -20.3578
  36   2.0000      -0.693096       -18.8601
  37   2.0000      -0.681624       -18.5479
  38   2.0000      -0.663578       -18.0569
  39   2.0000      -0.643618       -17.5137
  40   2.0000      -0.638012       -17.3612
  41   2.0000      -0.631099       -17.1731
  42   2.0000      -0.622345       -16.9349
  43   2.0000      -0.598659       -16.2903
  44   2.0000      -0.564050       -15.3486
  45   2.0000      -0.542198       -14.7540
  46   2.0000      -0.534553       -14.5459
  47   2.0000      -0.528158       -14.3719
  48   2.0000      -0.510356       -13.8875
  49   2.0000      -0.495522       -13.4838
  50   2.0000      -0.490443       -13.3456
  51   2.0000      -0.477723       -12.9995
  52   2.0000      -0.474773       -12.9192
  53   2.0000      -0.471422       -12.8281
  54   2.0000      -0.465437       -12.6652
  55   2.0000      -0.453138       -12.3305
  56   2.0000      -0.448547       -12.2056
  57   2.0000      -0.438557       -11.9337
  58   2.0000      -0.434601       -11.8261
  59   2.0000      -0.432385       -11.7658
  60   2.0000      -0.424995       -11.5647
  61   2.0000      -0.418273       -11.3818
  62   2.0000      -0.410325       -11.1655
  63   2.0000      -0.408926       -11.1274
  64   2.0000      -0.408367       -11.1122
  65   2.0000      -0.402317       -10.9476
  66   2.0000      -0.398985       -10.8569
  67   2.0000      -0.378690       -10.3047
  68   2.0000      -0.374431       -10.1888
  69   2.0000      -0.364727        -9.9247
  70   2.0000      -0.358648        -9.7593
  71   2.0000      -0.353006        -9.6058
  72   2.0000      -0.343752        -9.3540
  73   2.0000      -0.341281        -9.2867
  74   2.0000      -0.337006        -9.1704
  75   2.0000      -0.323629        -8.8064
  76   2.0000      -0.319277        -8.6880
  77   2.0000      -0.302288        -8.2257
  78   2.0000      -0.292214        -7.9515
  79   2.0000      -0.283913        -7.7257
  80   2.0000      -0.271377        -7.3846
  81   2.0000      -0.255925        -6.9641
  82   2.0000      -0.240426        -6.5423
  83   2.0000      -0.194400        -5.2899
  84   0.0000      -0.071046        -1.9333
  85   0.0000      -0.037952        -1.0327
  86   0.0000      -0.026175        -0.7123
  87   0.0000      -0.010662        -0.2901
  88   0.0000       0.002930         0.0797

MULLIKEN ATOMIC CHARGES
-----------------------
   0 C :   -0.112693
   1 C :   -0.164109
   2 C :   -0.231091
   3 H :    0.100727
   4 H :    0.117339
   5 C :    0.239128
   6 H :    0.125879
   7 H :    0.110588
   8 C :    0.002205
   9 N :   -0.147686
  10 H :    0.104838
  11 H :    0.130623
  12 C :   -0.113902
  13 C :   -0.150848
  14 H :    0.104857
  15 H :    0.131901
  16 C :   -0.275603
  17 H :    0.117219
  18 H :    0.101348
  19 C :    0.099717
  20 H :    0.113276
  21 H :    0.125246
  22 C :   -0.548398
  23 C :    0.080367
  24 C :    0.464425
  25 O :   -0.374228
  26 C :    0.414921
  27 C :   -0.349372
  28 C :    0.182604
  29 O :   -0.565641
  30 C :    0.201578
  31 C :   -0.206750
  32 C :   -0.045655
  33 N :   -0.502298
  34 C :    0.066953
  35 C :   -0.071966
  36 H :    0.131663
  37 H :    0.118996
  38 H :    0.124326
  39 H :    0.123088
  40 H :    0.090150
  41 H :    0.136278
Sum of atomic charges:    0.0000000

LOEWDIN ATOMIC CHARGES
----------------------
   0 C :   -0.190654
   1 C :   -0.219065
   2 C :   -0.187334
   3 H :    0.129055
   4 H :    0.131168
   5 C :   -0.106106
   6 H :    0.135877
   7 H :    0.137078
   8 C :   -0.069520
   9 N :    0.121386
  10 H :    0.124219
  11 H :    0.130032
  12 C :   -0.189213
  13 C :   -0.217631
  14 H :    0.124577
  15 H :    0.130387
  16 C :   -0.187639
  17 H :    0.131347
  18 H :    0.129648
  19 C :   -0.089214
  20 H :    0.137296
  21 H :    0.135356
  22 C :   -0.066730
  23 C :   -0.090001
  24 C :   -0.132751
  25 O :    0.218040
  26 C :   -0.249761
  27 C :   -0.017264
  28 C :   -0.102704
  29 O :   -0.073565
  30 C :   -0.102571
  31 C :   -0.065096
  32 C :   -0.129203
  33 N :    0.001469
  34 C :   -0.166313
  35 C :   -0.131101
  36 H :    0.137186
  37 H :    0.144045
  38 H :    0.131996
  39 H :    0.146849
  40 H :    0.149131
  41 H :    0.157294

  Mayer bond orders larger than 0.100000
B(  0-C ,  1-C ) :   1.0033 B(  0-C ,  9-N ) :   0.9513 B(  0-C , 10-H ) :   0.9476
B(  0-C , 11-H ) :   0.9518 B(  1-C ,  2-C ) :   1.0234 B(  1-C ,  3-H ) :   0.9680
B(  1-C ,  4-H ) :   0.9610 B(  2-C ,  5-C ) :   0.9950 B(  2-C ,  6-H ) :   0.9557
B(  2-C ,  7-H ) :   0.9463 B(  5-C ,  8-C ) :   1.2443 B(  5-C , 22-C ) :   1.3858
B(  8-C ,  9-N ) :   1.3506 B(  8-C , 19-C ) :   1.2545 B(  9-N , 12-C ) :   0.9506
B( 12-C , 13-C ) :   0.9982 B( 12-C , 14-H ) :   0.9484 B( 12-C , 15-H ) :   0.9527
B( 13-C , 16-C ) :   1.0370 B( 13-C , 17-H ) :   0.9631 B( 13-C , 18-H ) :   0.9664
B( 16-C , 19-C ) :   1.0366 B( 16-C , 20-H ) :   0.9538 B( 16-C , 21-H ) :   0.9479
B( 19-C , 23-C ) :   1.3267 B( 22-C , 24-C ) :   1.1056 B( 22-C , 40-H ) :   1.0524
B( 23-C , 24-C ) :   1.3569 B( 23-C , 25-O ) :   1.0239 B( 24-C , 27-C ) :   1.1128
B( 25-O , 26-C ) :   1.0967 B( 26-C , 28-C ) :   1.1152 B( 26-C , 29-O ) :   1.9377
B( 27-C , 28-C ) :   1.4350 B( 27-C , 41-H ) :   0.9796 B( 28-C , 30-C ) :   0.9425
B( 30-C , 31-C ) :   1.4016 B( 30-C , 32-C ) :   1.3964 B( 31-C , 35-C ) :   1.4642
B( 31-C , 39-H ) :   0.9707 B( 32-C , 33-N ) :   1.5003 B( 32-C , 36-H ) :   0.9652
B( 33-N , 34-C ) :   1.4643 B( 34-C , 35-C ) :   1.4240 B( 34-C , 38-H ) :   0.9648
B( 35-C , 37-H ) :   0.9621

FINAL SINGLE POINT ENERGY     -1033.323559016574

DIPOLE MOMENT
-------------
                                X             Y             Z
Electronic contribution:     20.57092      -6.30584       0.80783
Nuclear contribution   :    -25.28603       6.61909      -0.40624
                        -----------------------------------------
Total Dipole Moment    :     -4.71511       0.31325       0.40159
                        -----------------------------------------
Magnitude (a.u.)       :      4.74254
Magnitude (Debye)      :     12.05457

Rotational constants in cm-1:     0.021302     0.003932     0.003392
Rotational constants in MHz :   638.606935   117.884162   101.679634

                             ****ORCA TERMINATED NORMALLY****
TOTAL RUN TIME: 0 days 4 hours 31 minutes 9 seconds 852 msec
