                         Program Version 6.0.1  -  RELEASE   -
|  1> ! B3LYP/G OPT FREQ 6-311G* CPCM(Water)
|  2>
|  3> %tddft
|  4>     NRoots 3
|  5>     IRoot 1
|  6> end
|  7>
|  8> * xyz 0 1
|  9> C  -3.18242921420300728386 -0.60959024614772738815 -0.45214383816838443764
| 10> C  -2.68401153932855063289 -1.69150722546884058062 -1.17544888140915748664
| 11> C  -1.33833918745468283262 -1.79567972791638252872 -1.41110855265750045895
| 12> C  -2.32924168827839173090 0.35571887647971434099 0.03705485095563831877
| 13> C  -0.93713794559481733426 0.28485426981392980572 -0.19580983605881729925
| 14> O  -2.82738601832599378838 1.44807124405659726207 0.72194219468977838261
| 15> C  -0.44859966139613938196 -0.82037823029805601038 -0.93358493714983259437
| 16> C  0.94944108987521969034 -0.94722573061256554183 -1.18088734858151012119
| 17> C  1.83222110116333225527 -0.03494616365571223682 -0.71711864283009885135
| 18> C  0.00060585682237968008 1.26932592205442262845 0.28392351520169240020
| 19> C  1.38366705430454106640 1.09145379435262790402 0.02560288802298105182
| 20> N  -0.44698806679870606295 2.33611600609268954543 0.96302454330466913390
| 21> C  0.41097264709996839116 3.22061270653957887333 1.40966863174875767228
| 22> C  1.79264714414419867872 3.13173270887632604342 1.22060161479310869126
| 23> C  2.27693932172915047829 2.05696655806406569766 0.51709894219014029826
| 24> C  -3.67864077016141166609 1.26850860545051480344 1.76266480524833135668
| 25> O  -4.04562466971418110973 0.16839804632180332966 2.15455571137362777989
| 26> N  -4.04923901345476000557 2.42920264537170993435 2.30925210582896545120
| 27> C  -5.00721736117357796303 2.45098129143520759854 3.39200096768906966815
| 28> C  -3.57058717409049730662 3.71530742303269345683 1.84988229015689120693
| 29> H  -4.31442462146782990118 4.19091351042458892806 1.20811095481485875069
| 30> H  -2.64380462023206597166 3.58133895310509320353 1.29883290757590175168
| 31> H  -3.39178822571516924711 4.34627310625726792637 2.71878111425922597277
| 32> H  -5.31711449047322481931 1.43037922223307356617 3.60627294623135519203
| 33> H  -5.87505432921247106037 3.04422057761557063316 3.10257861452460925733
| 34> H  -4.55273392159281709013 2.88596934017064832290 4.28253543114068868647
| 35> H  -0.94241583899219738552 -2.63115192412242349107 -1.96720812919462395563
| 36> H  -4.24059600204830111636 -0.52423973417050651058 -0.25891885480463627811
| 37> H  -3.36876285684505960560 -2.43791287409286239196 -1.54533282258097748318
| 38> H  1.28351420201211152694 -1.80204970314123569253 -1.74858610786598700493
| 39> H  2.89172022432389130842 -0.13635134779372726221 -0.89887872434372106945
| 40> H  -0.02292274570719499138 4.05242659884339850862 1.94874495423721416643
| 41> H  2.44690625689625917971 3.89223892928653425471 1.61473902475615815888
| 42> H  3.33458507121432123910 1.93785257869217142357 0.33153766651245142327
| 43> *
| 44>
| 45>                          ****END OF INPUT****
 Total Charge           Charge          ....    0
 Multiplicity           Mult            ....    1
 Number of Electrons    NEL             ....  140
FINAL SINGLE POINT ENERGY      -878.177744364976
FINAL SINGLE POINT ENERGY      -878.187382126517
FINAL SINGLE POINT ENERGY      -878.188959383854
FINAL SINGLE POINT ENERGY      -878.189325043473
FINAL SINGLE POINT ENERGY      -878.189580314773
FINAL SINGLE POINT ENERGY      -878.189802063571
FINAL SINGLE POINT ENERGY      -878.189953857644
FINAL SINGLE POINT ENERGY      -878.190049892291
FINAL SINGLE POINT ENERGY      -878.190067376783
FINAL SINGLE POINT ENERGY      -878.190080271531
FINAL SINGLE POINT ENERGY      -878.190097785067
FINAL SINGLE POINT ENERGY      -878.190104531831
FINAL SINGLE POINT ENERGY      -878.190112129326
FINAL SINGLE POINT ENERGY      -878.190115948354
FINAL SINGLE POINT ENERGY      -878.190126923465
FINAL SINGLE POINT ENERGY      -878.190123150882
                    ***********************HURRAY********************

CARTESIAN COORDINATES (ANGSTROEM)
---------------------------------
  C     -3.140553   -0.682962   -0.191991
  C     -2.700942   -1.715738   -1.025588
  C     -1.374607   -1.739228   -1.439291
  C     -2.245313    0.310133    0.241308
  C     -0.851149    0.284353   -0.086415
  O     -2.735271    1.407263    0.879069
  C     -0.439577   -0.757962   -1.008509
  C      0.888237   -0.808110   -1.452961
  C      1.821417    0.131166   -1.010364
  C      0.137101    1.170904    0.473143
  C      1.491254    1.105206   -0.046287
  N     -0.191824    2.040802    1.466169
  C      0.746809    2.913824    1.893401
  C      2.044949    2.979852    1.394282
  C      2.441080    2.048884    0.428234
  C     -3.637938    1.291231    1.935094
  O     -3.848748    0.232544    2.491972
  N     -4.162579    2.491563    2.244291
  C     -5.145124    2.574179    3.320951
  C     -3.933742    3.721285    1.487329
  H     -4.802819    3.954127    0.864297
  H     -3.056238    3.625446    0.857755
  H     -3.779903    4.542469    2.190070
  H     -5.191082    1.625617    3.847019
  H     -6.133252    2.809733    2.914311
  H     -4.857052    3.363710    4.018553
  H     -1.027041   -2.520803   -2.106623
  H     -4.184712   -0.601698    0.077170
  H     -3.399667   -2.467215   -1.372934
  H      1.185834   -1.583576   -2.150519
  H      2.833175    0.109009   -1.403505
  H      0.439308    3.571581    2.702927
  H      2.741481    3.709584    1.792915
  H      3.456649    2.020659    0.049106

 Multiplicity           Mult            ....    1
 Number of Electrons    NEL             ....  140
 Basis Dimension        Dim             ....  402

ORBITAL ENERGIES
----------------

  NO   OCC          E(Eh)            E(eV)
   0   2.0000     -19.168291      -521.5957
   1   2.0000     -19.096466      -519.6413
   2   2.0000     -14.351405      -390.5216
   3   2.0000     -14.314695      -389.5226
   4   2.0000     -10.325065      -280.9593
   5   2.0000     -10.251755      -278.9644
   6   2.0000     -10.227693      -278.3097
   7   2.0000     -10.212874      -277.9064
   8   2.0000     -10.200789      -277.5776
   9   2.0000     -10.198448      -277.5139
  10   2.0000     -10.197781      -277.4957
  11   2.0000     -10.197732      -277.4944
  12   2.0000     -10.196824      -277.4697
  13   2.0000     -10.195883      -277.4441
  14   2.0000     -10.185336      -277.1571
  15   2.0000     -10.185287      -277.1557
  16   2.0000     -10.184522      -277.1349
  17   2.0000     -10.183784      -277.1148
  18   2.0000     -10.180840      -277.0348
  19   2.0000     -10.179423      -276.9962
  20   2.0000      -1.119306       -30.4579
  21   2.0000      -1.031735       -28.0749
  22   2.0000      -0.951422       -25.8895
  23   2.0000      -0.946241       -25.7485
  24   2.0000      -0.876313       -23.8457
  25   2.0000      -0.834723       -22.7140
  26   2.0000      -0.805463       -21.9178
  27   2.0000      -0.782736       -21.2993
  28   2.0000      -0.753340       -20.4994
  29   2.0000      -0.738754       -20.1025
  30   2.0000      -0.723853       -19.6970
  31   2.0000      -0.708293       -19.2736
  32   2.0000      -0.656857       -17.8740
  33   2.0000      -0.650748       -17.7078
  34   2.0000      -0.635339       -17.2885
  35   2.0000      -0.612408       -16.6645
  36   2.0000      -0.578770       -15.7491
  37   2.0000      -0.544977       -14.8296
  38   2.0000      -0.535695       -14.5770
  39   2.0000      -0.529801       -14.4166
  40   2.0000      -0.517857       -14.0916
  41   2.0000      -0.495132       -13.4732
  42   2.0000      -0.492800       -13.4098
  43   2.0000      -0.483818       -13.1654
  44   2.0000      -0.479657       -13.0521
  45   2.0000      -0.465178       -12.6581
  46   2.0000      -0.446149       -12.1403
  47   2.0000      -0.443980       -12.0813
  48   2.0000      -0.437980       -11.9180
  49   2.0000      -0.428432       -11.6582
  50   2.0000      -0.419487       -11.4148
  51   2.0000      -0.411751       -11.2043
  52   2.0000      -0.409865       -11.1530
  53   2.0000      -0.407849       -11.0981
  54   2.0000      -0.406357       -11.0575
  55   2.0000      -0.403813       -10.9883
  56   2.0000      -0.388811       -10.5801
  57   2.0000      -0.384227       -10.4553
  58   2.0000      -0.374017       -10.1775
  59   2.0000      -0.366144        -9.9633
  60   2.0000      -0.355679        -9.6785
  61   2.0000      -0.339125        -9.2281
  62   2.0000      -0.325262        -8.8508
  63   2.0000      -0.307810        -8.3759
  64   2.0000      -0.291718        -7.9380
  65   2.0000      -0.276351        -7.5199
  66   2.0000      -0.261740        -7.1223
  67   2.0000      -0.254635        -6.9290
  68   2.0000      -0.243686        -6.6310
  69   2.0000      -0.218763        -5.9528
  70   0.0000      -0.068590        -1.8664
  71   0.0000      -0.055355        -1.5063
  72   0.0000      -0.012971        -0.3530
  73   0.0000       0.012558         0.3417
  74   0.0000       0.036753         1.0001

----------------------------------------------------------------------------------------------------
                     ABSORPTION SPECTRUM VIA TRANSITION ELECTRIC DIPOLE MOMENTS
----------------------------------------------------------------------------------------------------
     Transition      Energy     Energy  Wavelength fosc(D2)      D2        DX        DY        DZ
                      (eV)      (cm-1)    (nm)                 (au**2)    (au)      (au)      (au)
----------------------------------------------------------------------------------------------------
  0-1A  ->  1-1A    3.514856   28349.2   352.7   0.286584817   3.32803   1.43058   1.04791   0.42821
  0-1A  ->  2-1A    3.914777   31574.8   316.7   0.178916635   1.86546   0.33444   1.08490   0.75935
  0-1A  ->  3-1A    4.140190   33392.9   299.5   0.012968889   0.12786  -0.34896   0.06255  -0.04660

MULLIKEN ATOMIC CHARGES
-----------------------
   0 C :   -0.204339
   1 C :   -0.226934
   2 C :   -0.175916
   3 C :    0.218873
   4 C :   -0.017622
   5 O :   -0.321298
   6 C :   -0.002209
   7 C :   -0.222890
   8 C :   -0.241402
   9 C :    0.133182
  10 C :    0.009094
  11 N :   -0.403485
  12 C :   -0.084421
  13 C :   -0.303276
  14 C :   -0.189391
  15 C :    0.540385
  16 O :   -0.431013
  17 N :   -0.330839
  18 C :   -0.523602
  19 C :   -0.520208
  20 H :    0.239291
  21 H :    0.250391
  22 H :    0.241052
  23 H :    0.241339
  24 H :    0.240689
  25 H :    0.243554
  26 H :    0.246470
  27 H :    0.252481
  28 H :    0.238659
  29 H :    0.234717
  30 H :    0.228616
  31 H :    0.209780
  32 H :    0.213754
  33 H :    0.216518
Sum of atomic charges:    0.0000000

LOEWDIN ATOMIC CHARGES
----------------------
   0 C :   -0.101754
   1 C :   -0.117186
   2 C :   -0.028863
   3 C :    0.026659
   4 C :   -0.068385
   5 O :    0.098782
   6 C :   -0.049449
   7 C :   -0.087835
   8 C :   -0.092336
   9 C :   -0.018803
  10 C :   -0.042394
  11 N :   -0.094446
  12 C :   -0.126036
  13 C :   -0.151876
  14 C :   -0.151393
  15 C :   -0.100956
  16 O :   -0.163887
  17 N :    0.046995
  18 C :   -0.237244
  19 C :   -0.239961
  20 H :    0.116900
  21 H :    0.120060
  22 H :    0.120127
  23 H :    0.120758
  24 H :    0.117944
  25 H :    0.119900
  26 H :    0.133944
  27 H :    0.130855
  28 H :    0.130494
  29 H :    0.127840
  30 H :    0.124292
  31 H :    0.102905
  32 H :    0.118177
  33 H :    0.116172

  Mayer bond orders larger than 0.100000
B(  0-C ,  1-C ) :   1.3534 B(  0-C ,  3-C ) :   1.3279 B(  0-C , 27-H ) :   0.9019
B(  1-C ,  2-C ) :   1.4132 B(  1-C , 28-H ) :   0.9228 B(  2-C ,  6-C ) :   1.2470
B(  2-C , 26-H ) :   0.9146 B(  3-C ,  4-C ) :   1.2082 B(  3-C ,  5-O ) :   1.0524
B(  4-C ,  6-C ) :   1.2366 B(  4-C ,  9-C ) :   1.2538 B(  5-O , 15-C ) :   0.9763
B(  6-C ,  7-C ) :   1.3462 B(  7-C ,  8-C ) :   1.3749 B(  7-C , 29-H ) :   0.9188
B(  8-C , 10-C ) :   1.3045 B(  8-C , 30-H ) :   0.9242 B(  9-C , 10-C ) :   1.1405
B(  9-C , 11-N ) :   1.4431 B( 10-C , 14-C ) :   1.2593 B( 11-N , 12-C ) :   1.3909
B( 12-C , 13-C ) :   1.4024 B( 12-C , 31-H ) :   0.9337 B( 13-C , 14-C ) :   1.3461
B( 13-C , 32-H ) :   0.9270 B( 14-C , 33-H ) :   0.9332 B( 15-C , 16-O ) :   1.8946
B( 15-C , 17-N ) :   1.2353 B( 17-N , 18-C ) :   0.9525 B( 17-N , 19-C ) :   0.9421
B( 18-C , 23-H ) :   0.9142 B( 18-C , 24-H ) :   0.9159 B( 18-C , 25-H ) :   0.9172
B( 19-C , 20-H ) :   0.9133 B( 19-C , 21-H ) :   0.9100 B( 19-C , 22-H ) :   0.9175

FINAL SINGLE POINT ENERGY      -878.190125490704

DIPOLE MOMENT
-------------

Method             : TDA/CIS
Type of density    : Electron Density
Level              : Relaxed density
State              :   1
Multiplicity       :   1
Irrep              :   0
Energy             :     0.0000000000000000 Eh
Relativity type    :
Basis              : AO
                                X                 Y                 Z
Electronic contribution:      5.519490938      -7.317081225      -4.090773568
Nuclear contribution   :     -6.529856879       7.671703354       2.820436267
                        -----------------------------------------
Total Dipole Moment    :     -1.010365941       0.354622129      -1.270337302
                        -----------------------------------------
Magnitude (a.u.)       :      1.661431025
Magnitude (Debye)      :      4.223022056

VIBRATIONAL FREQUENCIES
-----------------------

Scaling factor for frequencies =  1.000000000  (already applied!)

     0:       0.00 cm**-1
     1:       0.00 cm**-1
     2:       0.00 cm**-1
     3:       0.00 cm**-1
     4:       0.00 cm**-1
     5:       0.00 cm**-1
     6:     -24.84 cm**-1  ***imaginary mode***
     7:      23.37 cm**-1
     8:      42.82 cm**-1
     9:      58.01 cm**-1
    10:      87.90 cm**-1
    11:      94.18 cm**-1
    12:     105.60 cm**-1
    13:     127.47 cm**-1
    14:     185.56 cm**-1
    15:     202.81 cm**-1
    16:     208.16 cm**-1
    17:     234.22 cm**-1
    18:     241.78 cm**-1
    19:     255.43 cm**-1
    20:     341.04 cm**-1
    21:     359.08 cm**-1
    22:     385.18 cm**-1
    23:     400.77 cm**-1
    24:     446.02 cm**-1
    25:     456.06 cm**-1
    26:     472.32 cm**-1
    27:     489.57 cm**-1
    28:     503.39 cm**-1
    29:     518.97 cm**-1
    30:     535.33 cm**-1
    31:     582.80 cm**-1
    32:     595.51 cm**-1
    33:     622.27 cm**-1
    34:     661.56 cm**-1
    35:     681.85 cm**-1
    36:     692.33 cm**-1
    37:     699.11 cm**-1
    38:     737.74 cm**-1
    39:     741.66 cm**-1
    40:     778.24 cm**-1
    41:     800.83 cm**-1
    42:     814.89 cm**-1
    43:     823.89 cm**-1
    44:     831.05 cm**-1
    45:     841.17 cm**-1
    46:     881.71 cm**-1
    47:     911.72 cm**-1
    48:     922.15 cm**-1
    49:     942.71 cm**-1
    50:     976.66 cm**-1
    51:     986.88 cm**-1
    52:    1011.21 cm**-1
    53:    1076.02 cm**-1
    54:    1077.18 cm**-1
    55:    1084.15 cm**-1
    56:    1103.74 cm**-1
    57:    1117.80 cm**-1
    58:    1129.67 cm**-1
    59:    1133.06 cm**-1
    60:    1171.38 cm**-1
    61:    1180.52 cm**-1
    62:    1194.67 cm**-1
    63:    1207.80 cm**-1
    64:    1253.28 cm**-1
    65:    1255.66 cm**-1
    66:    1279.32 cm**-1
    67:    1288.77 cm**-1
    68:    1324.84 cm**-1
    69:    1366.58 cm**-1
    70:    1378.31 cm**-1
    71:    1408.20 cm**-1
    72:    1416.57 cm**-1
    73:    1429.54 cm**-1
    74:    1442.35 cm**-1
    75:    1452.18 cm**-1
    76:    1458.65 cm**-1
    77:    1468.83 cm**-1
    78:    1489.98 cm**-1
    79:    1500.81 cm**-1
    80:    1501.80 cm**-1
    81:    1503.32 cm**-1
    82:    1513.04 cm**-1
    83:    1532.54 cm**-1
    84:    1544.96 cm**-1
    85:    1552.91 cm**-1
    86:    1567.91 cm**-1
    87:    1754.50 cm**-1
    88:    3030.96 cm**-1
    89:    3036.05 cm**-1
    90:    3093.19 cm**-1
    91:    3095.37 cm**-1
    92:    3143.14 cm**-1
    93:    3176.70 cm**-1
    94:    3178.43 cm**-1
    95:    3185.70 cm**-1
    96:    3189.32 cm**-1
    97:    3193.62 cm**-1
    98:    3198.06 cm**-1
    99:    3201.15 cm**-1
   100:    3212.84 cm**-1
   101:    3229.38 cm**-1

IR SPECTRUM
-----------

 Mode   freq       eps      Int      T**2         TX        TY        TZ
       cm**-1   L/(mol*cm) km/mol    a.u.
----------------------------------------------------------------------------
  7:     23.37   0.000420    2.12  0.005614  (-0.021821  0.058449 -0.041490)
  8:     42.82   0.000564    2.85  0.004110  ( 0.056486  0.030325 -0.000051)
  9:     58.01   0.000418    2.11  0.002249  ( 0.012012  0.024169  0.038998)
 10:     87.90   0.000476    2.41  0.001690  ( 0.005028 -0.029806  0.027857)
 11:     94.18   0.000606    3.06  0.002008  ( 0.029163 -0.015659  0.030212)
 12:    105.60   0.000832    4.20  0.002458  ( 0.003792  0.029505 -0.039659)
 13:    127.47   0.000155    0.78  0.000378  (-0.010863 -0.008089 -0.013963)
 14:    185.56   0.000704    3.56  0.001184  ( 0.026198 -0.022254  0.001552)
 15:    202.81   0.001334    6.74  0.002053  ( 0.001179 -0.017014  0.041980)
 16:    208.16   0.002384   12.05  0.003574  (-0.039463  0.014064  0.042653)
 17:    234.22   0.001012    5.12  0.001349  (-0.012585 -0.021265 -0.027170)
 18:    241.78   0.001508    7.62  0.001947  (-0.002512  0.022148  0.038081)
 19:    255.43   0.000150    0.76  0.000183  ( 0.007443  0.010441  0.004346)
 20:    341.04   0.001908    9.64  0.001746  ( 0.026858 -0.018334 -0.026238)
 21:    359.08   0.000050    0.25  0.000044  ( 0.001768 -0.002410 -0.005885)
 22:    385.18   0.002930   14.81  0.002374  ( 0.034251 -0.019826 -0.028418)
 23:    400.77   0.002059   10.40  0.001603  (-0.023832  0.020047  0.025164)
 24:    446.02   0.001216    6.14  0.000850  (-0.020487 -0.014222  0.015115)
 25:    456.06   0.000156    0.79  0.000107  (-0.001766  0.007517  0.006865)
 26:    472.32   0.001915    9.68  0.001265  ( 0.022381  0.009300 -0.026038)
 27:    489.57   0.002349   11.87  0.001497  ( 0.031168 -0.014461 -0.017802)
 28:    503.39   0.000461    2.33  0.000286  (-0.010041 -0.003021 -0.013255)
 29:    518.97   0.001402    7.08  0.000843  ( 0.028526  0.001833 -0.005093)
 30:    535.33   0.001169    5.91  0.000681  ( 0.018906  0.017845  0.002325)
 31:    582.80   0.001488    7.52  0.000797  (-0.027977  0.002274 -0.002956)
 32:    595.51   0.001139    5.76  0.000597  ( 0.014325  0.012700  0.015178)
 33:    622.27   0.003855   19.48  0.001933  ( 0.010218 -0.037111  0.021257)
 34:    661.56   0.008418   42.54  0.003971  ( 0.020064 -0.020484  0.056111)
 35:    681.85   0.008390   42.40  0.003840  (-0.015595 -0.005043  0.059759)
 36:    692.33   0.006271   31.69  0.002827  (-0.033986  0.040522 -0.005441)
 37:    699.11   0.001313    6.63  0.000586  ( 0.006229 -0.020043 -0.012056)
 38:    737.74   0.012626   63.81  0.005341  (-0.067674  0.022831 -0.015479)
 39:    741.66   0.002214   11.19  0.000931  (-0.011083 -0.026448 -0.010445)
 40:    778.24   0.012315   62.23  0.004938  ( 0.043476 -0.050434  0.022458)
 41:    800.83   0.012003   60.66  0.004677  ( 0.007576 -0.038906  0.055734)
 42:    814.89   0.003010   15.21  0.001153  ( 0.024791 -0.017333  0.015421)
 43:    823.89   0.005212   26.34  0.001974  (-0.026731  0.021368  0.028339)
 44:    831.05   0.009436   47.68  0.003543  ( 0.024593  0.001664 -0.054181)
 45:    841.17   0.002907   14.69  0.001078  ( 0.020441  0.025169  0.005196)
 46:    881.71   0.000745    3.76  0.000264  ( 0.011391 -0.003481  0.011033)
 47:    911.72   0.000625    3.16  0.000214  (-0.000372  0.014534 -0.001609)
 48:    922.15   0.000229    1.16  0.000078  ( 0.002406 -0.004567 -0.007134)
 49:    942.71   0.001012    5.11  0.000335  (-0.003581  0.002963 -0.017700)
 50:    976.66   0.011893   60.10  0.003800  (-0.043182  0.002088  0.043942)
 51:    986.88   0.014709   74.33  0.004651  ( 0.047369 -0.024463 -0.042531)
 52:   1011.21   0.038059  192.33  0.011745  (-0.056766  0.051985  0.076291)
 53:   1076.02   0.034597  174.84  0.010034  (-0.051895  0.055764  0.065046)
 54:   1077.18   0.008381   42.35  0.002428  (-0.022096 -0.039940 -0.018560)
 55:   1084.15   0.008259   41.74  0.002377  ( 0.036640  0.006500 -0.031504)
 56:   1103.74   0.018431   93.14  0.005211  ( 0.067706 -0.008930 -0.023389)
 57:   1117.80   0.186971  944.87  0.052198  (-0.146415  0.124749  0.123281)
 58:   1129.67   0.001154    5.83  0.000319  ( 0.010684 -0.014263 -0.001148)
 59:   1133.06   0.001415    7.15  0.000390  (-0.013586  0.003193  0.013965)
 60:   1171.38   0.006049   30.57  0.001611  ( 0.028273 -0.016865 -0.022970)
 61:   1180.52   0.001788    9.04  0.000473  ( 0.017113  0.005126 -0.012392)
 62:   1194.67   0.025985  131.32  0.006788  ( 0.061838 -0.030869 -0.044842)
 63:   1207.80   0.004237   21.41  0.001095  ( 0.017043  0.020003  0.020104)
 64:   1253.28   0.022867  115.56  0.005694  (-0.053189  0.023631  0.048024)
 65:   1255.66   0.017383   87.85  0.004320  (-0.050618  0.015665  0.038890)
 66:   1279.32   0.002286   11.55  0.000558  ( 0.003565  0.011109  0.020530)
 67:   1288.77   0.003762   19.01  0.000911  ( 0.010629 -0.025514 -0.012122)
 68:   1324.84   0.015342   77.53  0.003614  (-0.038256  0.031665  0.033877)
 69:   1366.58   0.006201   31.34  0.001416  ( 0.030908  0.020249  0.007128)
 70:   1378.31   0.002086   10.54  0.000472  ( 0.019198  0.010111 -0.001239)
 71:   1408.20   0.020767  104.95  0.004602  ( 0.044253 -0.034144 -0.038444)
 72:   1416.57   0.034324  173.46  0.007561  ( 0.064328 -0.036719 -0.045553)
 73:   1429.54   0.002554   12.91  0.000558  ( 0.017517  0.015644  0.002438)
 74:   1442.35   0.000346    1.75  0.000075  ( 0.007254  0.003971  0.002538)
 75:   1452.18   0.001165    5.89  0.000250  (-0.002287  0.014648 -0.005537)
 76:   1458.65   0.010453   52.82  0.002236  (-0.034918  0.016061  0.027550)
 77:   1468.83   0.007068   35.72  0.001502  ( 0.009688  0.029567 -0.023098)
 78:   1489.98   0.000430    2.17  0.000090  (-0.003022 -0.006529 -0.006186)
 79:   1500.81   0.005775   29.18  0.001201  (-0.023699 -0.003070 -0.025093)
 80:   1501.80   0.003180   16.07  0.000661  (-0.014130 -0.018188  0.011414)
 81:   1503.32   0.002717   13.73  0.000564  ( 0.020516  0.006762 -0.009868)
 82:   1513.04   0.000867    4.38  0.000179  (-0.009649 -0.004584 -0.008039)
 83:   1532.54   0.019116   96.61  0.003893  (-0.043350  0.018121  0.041048)
 84:   1544.96   0.001803    9.11  0.000364  (-0.011060  0.007167  0.013803)
 85:   1552.91   0.004472   22.60  0.000899  ( 0.026187  0.014031  0.004004)
 86:   1567.91   0.004923   24.88  0.000980  ( 0.004559 -0.026646 -0.015781)
 87:   1754.50   0.183801  928.86  0.032692  ( 0.016293 -0.176238  0.036966)
 88:   3030.96   0.007278   36.78  0.000749  ( 0.015100  0.007658 -0.021511)
 89:   3036.05   0.024287  122.74  0.002496  (-0.034501  0.036061 -0.002383)
 90:   3093.19   0.017926   90.59  0.001809  (-0.023646 -0.019342 -0.029585)
 91:   3095.37   0.000489    2.47  0.000049  ( 0.001775  0.005961  0.003254)
 92:   3143.14   0.006097   30.81  0.000605  (-0.004063  0.016292  0.017985)
 93:   3176.70   0.001378    6.97  0.000135  ( 0.001110  0.010297 -0.005306)
 94:   3178.43   0.000753    3.80  0.000074  ( 0.001873  0.006125  0.005736)
 95:   3185.70   0.006796   34.35  0.000666  ( 0.008162 -0.016889 -0.017717)
 96:   3189.32   0.002577   13.02  0.000252  (-0.014084  0.002308  0.006961)
 97:   3193.62   0.002784   14.07  0.000272  (-0.013535  0.002649  0.009047)
 98:   3198.06   0.006867   34.70  0.000670  (-0.022397 -0.012450 -0.003664)
 99:   3201.15   0.004602   23.26  0.000449  (-0.004565  0.015591  0.013591)
100:   3212.84   0.006565   33.18  0.000638  (-0.005764 -0.021033 -0.012731)
101:   3229.38   0.002221   11.22  0.000215  ( 0.014438  0.002296 -0.000924)

--------------------------
THERMOCHEMISTRY AT 298.15K
--------------------------

Temperature         ...   298.15 K
Pressure            ...     1.00 atm
Total Mass          ...   266.30 AMU
Quasi RRHO          ...     True
Cut-Off Frequency   ...     1.00 cm^-1

Throughout the following assumptions are being made:
  (1) The electronic state is orbitally nondegenerate
  (2) There are no thermally accessible electronically excited states
  (3) Hindered rotations indicated by low frequency modes are not
      treated as such but are treated as vibrations and this may
      cause some error
  (4) All equations used are the standard statistical mechanics
      equations for an ideal gas
  (5) All vibrations are strictly harmonic

freq.      23.37  E(vib)   ...       0.56
freq.      42.82  E(vib)   ...       0.53
freq.      58.01  E(vib)   ...       0.51
freq.      87.90  E(vib)   ...       0.48
freq.      94.18  E(vib)   ...       0.47
freq.     105.60  E(vib)   ...       0.45
freq.     127.47  E(vib)   ...       0.43
freq.     185.56  E(vib)   ...       0.37
freq.     202.81  E(vib)   ...       0.35
freq.     208.16  E(vib)   ...       0.34
freq.     234.22  E(vib)   ...       0.32
freq.     241.78  E(vib)   ...       0.31
freq.     255.43  E(vib)   ...       0.30
freq.     341.04  E(vib)   ...       0.23
freq.     359.08  E(vib)   ...       0.22
freq.     385.18  E(vib)   ...       0.20
freq.     400.77  E(vib)   ...       0.19
freq.     446.02  E(vib)   ...       0.17
freq.     456.06  E(vib)   ...       0.16
freq.     472.32  E(vib)   ...       0.15
freq.     489.57  E(vib)   ...       0.15
freq.     503.39  E(vib)   ...       0.14
freq.     518.97  E(vib)   ...       0.13
freq.     535.33  E(vib)   ...       0.13
freq.     582.80  E(vib)   ...       0.11
freq.     595.51  E(vib)   ...       0.10
freq.     622.27  E(vib)   ...       0.09
freq.     661.56  E(vib)   ...       0.08
freq.     681.85  E(vib)   ...       0.08
freq.     692.33  E(vib)   ...       0.07
freq.     699.11  E(vib)   ...       0.07
freq.     737.74  E(vib)   ...       0.06
freq.     741.66  E(vib)   ...       0.06
freq.     778.24  E(vib)   ...       0.05
freq.     800.83  E(vib)   ...       0.05
freq.     814.89  E(vib)   ...       0.05
freq.     823.89  E(vib)   ...       0.05
freq.     831.05  E(vib)   ...       0.04
freq.     841.17  E(vib)   ...       0.04
freq.     881.71  E(vib)   ...       0.04
freq.     911.72  E(vib)   ...       0.03
freq.     922.15  E(vib)   ...       0.03
freq.     942.71  E(vib)   ...       0.03
freq.     976.66  E(vib)   ...       0.03
freq.     986.88  E(vib)   ...       0.02
freq.    1011.21  E(vib)   ...       0.02
freq.    1076.02  E(vib)   ...       0.02
freq.    1077.18  E(vib)   ...       0.02
freq.    1084.15  E(vib)   ...       0.02
freq.    1103.74  E(vib)   ...       0.02
freq.    1117.80  E(vib)   ...       0.01
freq.    1129.67  E(vib)   ...       0.01
freq.    1133.06  E(vib)   ...       0.01
freq.    1171.38  E(vib)   ...       0.01
freq.    1180.52  E(vib)   ...       0.01
freq.    1194.67  E(vib)   ...       0.01
freq.    1207.80  E(vib)   ...       0.01
freq.    1253.28  E(vib)   ...       0.01
freq.    1255.66  E(vib)   ...       0.01
freq.    1279.32  E(vib)   ...       0.01
freq.    1288.77  E(vib)   ...       0.01
freq.    1324.84  E(vib)   ...       0.01
freq.    1366.58  E(vib)   ...       0.01
freq.    1378.31  E(vib)   ...       0.01
freq.    1408.20  E(vib)   ...       0.00
freq.    1416.57  E(vib)   ...       0.00
freq.    1429.54  E(vib)   ...       0.00
freq.    1442.35  E(vib)   ...       0.00
freq.    1452.18  E(vib)   ...       0.00
freq.    1458.65  E(vib)   ...       0.00
freq.    1468.83  E(vib)   ...       0.00
freq.    1489.98  E(vib)   ...       0.00
freq.    1500.81  E(vib)   ...       0.00
freq.    1501.80  E(vib)   ...       0.00
freq.    1503.32  E(vib)   ...       0.00
freq.    1513.04  E(vib)   ...       0.00
freq.    1532.54  E(vib)   ...       0.00
freq.    1544.96  E(vib)   ...       0.00
freq.    1552.91  E(vib)   ...       0.00
freq.    1567.91  E(vib)   ...       0.00
freq.    1754.50  E(vib)   ...       0.00
freq.    3030.96  E(vib)   ...       0.00
freq.    3036.05  E(vib)   ...       0.00
freq.    3093.19  E(vib)   ...       0.00
freq.    3095.37  E(vib)   ...       0.00
freq.    3143.14  E(vib)   ...       0.00
freq.    3176.70  E(vib)   ...       0.00
freq.    3178.43  E(vib)   ...       0.00
freq.    3185.70  E(vib)   ...       0.00
freq.    3189.32  E(vib)   ...       0.00
freq.    3193.62  E(vib)   ...       0.00
freq.    3198.06  E(vib)   ...       0.00
freq.    3201.15  E(vib)   ...       0.00
freq.    3212.84  E(vib)   ...       0.00
freq.    3229.38  E(vib)   ...       0.00

------------
INNER ENERGY
------------

The inner energy is: U= E(el) + E(ZPE) + E(vib) + E(rot) + E(trans)
    E(el)   - is the total energy from the electronic structure calculation
              = E(kin-el) + E(nuc-el) + E(el-el) + E(nuc-nuc)
    E(ZPE)  - the the zero temperature vibrational energy from the frequency calculation
    E(vib)  - the the finite temperature correction to E(ZPE) due to population
              of excited vibrational states
    E(rot)  - is the rotational thermal energy
    E(trans)- is the translational thermal energy

Summary of contributions to the inner energy U:
Electronic energy                ...   -878.19012588 Eh
Zero point energy                ...      0.26344212 Eh     165.31 kcal/mol
Thermal vibrational correction   ...      0.01396292 Eh       8.76 kcal/mol
Thermal rotational correction    ...      0.00141627 Eh       0.89 kcal/mol
Thermal translational correction ...      0.00141627 Eh       0.89 kcal/mol
-----------------------------------------------------------------------
Total thermal energy                   -877.90988830 Eh

Summary of corrections to the electronic energy:
(perhaps to be used in another calculation)
Total thermal correction                  0.01679546 Eh      10.54 kcal/mol
Non-thermal (ZPE) correction              0.26344212 Eh     165.31 kcal/mol
-----------------------------------------------------------------------
Total correction                          0.28023758 Eh     175.85 kcal/mol

--------
ENTHALPY
--------

The enthalpy is H = U + kB*T
                kB is Boltzmann's constant
Total thermal energy              ...   -877.90988830 Eh
Thermal Enthalpy correction       ...      0.00094421 Eh       0.59 kcal/mol
-----------------------------------------------------------------------
Total Enthalpy                    ...   -877.90894409 Eh

Note: Only C1 symmetry has been detected, increase convergence thresholds
      if your molecule has a higher symmetry. Symmetry factor of 1.0 is
      used for the rotational entropy correction.

Rotational constants in cm-1:     0.016824     0.009563     0.006459

                             ****ORCA TERMINATED NORMALLY****
TOTAL RUN TIME: 1 days 2 hours 48 minutes 20 seconds 630 msec
