                         Program Version 6.0.1  -  RELEASE   -
|  1> ! B3LYP/G OPT FREQ 6-311G* CPCM(Water)
|  2>
|  3> * xyz 0 1
|  4> C  -3.43521304737168220456 -0.95896738516231905258 -0.44094104514160137320
|  5> C  -2.88457870351700407241 -1.86713176532625291237 -1.34229587741004596779
|  6> C  -1.54633571587188400898 -1.81129190465157363654 -1.63618957058193803533
|  7> C  -2.63652433731567281683 -0.02936813524948322929 0.18968218169220152358
|  8> C  -1.24646438925521141350 0.01482894352460517595 -0.04323157859356707711
|  9> O  -3.25938696545325790055 0.83696398815892059098 1.07289384524012443300
| 10> C  -0.71184370693295140331 -0.87451450479615266964 -1.00708293903447199114
| 11> C  0.67164880624064471348 -0.80404689107350502120 -1.34339243952531850468
| 12> C  1.49232156967741635967 0.10173823719757724149 -0.76620847953612947201
| 13> C  -0.35285449229853260711 0.91553516712123950150 0.63881431836669844149
| 14> C  1.00616054759133266572 0.97788509192168071582 0.24306155903834603116
| 15> N  -0.81670283634102802672 1.66502668547431520452 1.65039941598789585697
| 16> C  -0.01252984556917291492 2.51413465579298955888 2.24331674253751467418
| 17> C  1.32622231510095955898 2.69337820441584252507 1.88979350440449311854
| 18> C  1.83897479103964478497 1.90448652897890680080 0.88962767037215328969
| 19> C  -3.09639841215461775192 2.17118010470902955689 0.85982099712492177090
| 20> O  -2.70914977805041434777 2.63200364731370672899 -0.20688914531489088766
| 21> N  -3.54202468387269675532 2.89394250265393315757 1.89068217185903386657
| 22> C  -3.89512356076194210530 2.27345096794957512998 3.15096130605254964863
| 23> C  -3.43101184198231301536 4.33492645639773854782 1.86739539474579552270
| 24> H  -3.10989593658054808145 4.64008636392709838958 0.87353394474348577958
| 25> H  -2.69739948183943578641 4.67013568337696316490 2.60167270539155470743
| 26> H  -4.40036338035293184134 4.78058886851284725594 2.08937656319768283453
| 27> H  -4.56692406864967637148 1.43526400623576666504 2.97708348138864975496
| 28> H  -4.39161419072103242911 3.01597513802801842075 3.76823781200569829508
| 29> H  -3.00228420882155999649 1.90442578000004836269 3.65898544162765881893
| 30> H  -1.11448824989742822922 -2.48505733173217091547 -2.35970500317780906840
| 31> H  -4.49277503779968334641 -0.96057753454650351976 -0.22869122402172847863
| 32> H  -3.52336533868374157663 -2.59184068372228271215 -1.82121843079551926081
| 33> H  1.04282072444646045639 -1.48908033339610601509 -2.09020877429063745012
| 34> H  2.53384657850448480332 0.17212228818244268425 -1.04200780574481655094
| 35> H  -0.45497142574664439785 3.08140079069450578686 3.05111059368421866367
| 36> H  1.93163973189951132525 3.42163076244377339918 2.40423268122427202798
| 37> H  2.87473858250746783227 1.97860561524424438673 0.59175996621907722695
| 38> *
| 39>
| 40>                          ****END OF INPUT****
 Total Charge           Charge          ....    0
 Multiplicity           Mult            ....    1
 Number of Electrons    NEL             ....  140
FINAL SINGLE POINT ENERGY      -878.321090811370
FINAL SINGLE POINT ENERGY      -878.325893119555
FINAL SINGLE POINT ENERGY      -878.326947890775
FINAL SINGLE POINT ENERGY      -878.327819821040
FINAL SINGLE POINT ENERGY      -878.328324853248
FINAL SINGLE POINT ENERGY      -878.328707315874
FINAL SINGLE POINT ENERGY      -878.328930315826
FINAL SINGLE POINT ENERGY      -878.329079954527
FINAL SINGLE POINT ENERGY      -878.329177835574
FINAL SINGLE POINT ENERGY      -878.329223750261
FINAL SINGLE POINT ENERGY      -878.329364378854
FINAL SINGLE POINT ENERGY      -878.329371672911
FINAL SINGLE POINT ENERGY      -878.329374153131
FINAL SINGLE POINT ENERGY      -878.329377660963
FINAL SINGLE POINT ENERGY      -878.329379078267
FINAL SINGLE POINT ENERGY      -878.329380631603
FINAL SINGLE POINT ENERGY      -878.329381986006
FINAL SINGLE POINT ENERGY      -878.329382146631
FINAL SINGLE POINT ENERGY      -878.329383165336
                    ***********************HURRAY********************

CARTESIAN COORDINATES (ANGSTROEM)
---------------------------------
  C     -3.398577   -0.734768   -0.488354
  C     -2.922745   -1.643001   -1.443955
  C     -1.573264   -1.696134   -1.714883
  C     -2.531471    0.105759    0.181290
  C     -1.131343    0.088825   -0.064115
  O     -3.105427    0.896892    1.169613
  C     -0.666365   -0.849956   -1.039442
  C      0.734911   -0.946562   -1.335756
  C      1.647971   -0.168158   -0.704651
  C     -0.147600    0.934185    0.604932
  C      1.232380    0.785995    0.278056
  N     -0.552964    1.843881    1.523904
  C      0.352203    2.597390    2.128687
  C      1.731872    2.518368    1.878698
  C      2.166952    1.605909    0.943721
  C     -3.329870    2.223247    0.879136
  O     -3.162558    2.682625   -0.237080
  N     -3.800311    2.895075    1.952809
  C     -3.887074    2.343989    3.301216
  C     -4.100321    4.315815    1.825510
  H     -4.085475    4.598601    0.777233
  H     -3.363743    4.916664    2.369371
  H     -5.089978    4.521426    2.241329
  H     -3.712260    1.274186    3.288005
  H     -4.882209    2.537640    3.710419
  H     -3.147127    2.818599    3.954063
  H     -1.185256   -2.394971   -2.448512
  H     -4.455200   -0.677599   -0.252529
  H     -3.617667   -2.295223   -1.961447
  H      1.048527   -1.669170   -2.082200
  H      2.705880   -0.252867   -0.932656
  H     -0.028167    3.311277    2.855512
  H      2.422541    3.164003    2.408883
  H      3.221887    1.505896    0.707572

 Multiplicity           Mult            ....    1
 Number of Electrons    NEL             ....  140
 Basis Dimension        Dim             ....  402

ORBITAL ENERGIES
----------------

  NO   OCC          E(Eh)            E(eV)
   0   2.0000     -19.164659      -521.4969
   1   2.0000     -19.089419      -519.4495
   2   2.0000     -14.345107      -390.3502
   3   2.0000     -14.313707      -389.4958
   4   2.0000     -10.319612      -280.8109
   5   2.0000     -10.247482      -278.8482
   6   2.0000     -10.226697      -278.2826
   7   2.0000     -10.212419      -277.8941
   8   2.0000     -10.201740      -277.6035
   9   2.0000     -10.198596      -277.5179
  10   2.0000     -10.197278      -277.4821
  11   2.0000     -10.194557      -277.4080
  12   2.0000     -10.193925      -277.3908
  13   2.0000     -10.193505      -277.3794
  14   2.0000     -10.183994      -277.1206
  15   2.0000     -10.183789      -277.1150
  16   2.0000     -10.183781      -277.1148
  17   2.0000     -10.183087      -277.0959
  18   2.0000     -10.181442      -277.0511
  19   2.0000     -10.180662      -277.0299
  20   2.0000      -1.114364       -30.3234
  21   2.0000      -1.021846       -27.8058
  22   2.0000      -0.955642       -26.0043
  23   2.0000      -0.944868       -25.7112
  24   2.0000      -0.881166       -23.9777
  25   2.0000      -0.839427       -22.8420
  26   2.0000      -0.808221       -21.9928
  27   2.0000      -0.783654       -21.3243
  28   2.0000      -0.752442       -20.4750
  29   2.0000      -0.744922       -20.2704
  30   2.0000      -0.721529       -19.6338
  31   2.0000      -0.706020       -19.2118
  32   2.0000      -0.656217       -17.8566
  33   2.0000      -0.649145       -17.6641
  34   2.0000      -0.631811       -17.1925
  35   2.0000      -0.619501       -16.8575
  36   2.0000      -0.574701       -15.6384
  37   2.0000      -0.548062       -14.9135
  38   2.0000      -0.536629       -14.6024
  39   2.0000      -0.531191       -14.4544
  40   2.0000      -0.515929       -14.0391
  41   2.0000      -0.495980       -13.4963
  42   2.0000      -0.491819       -13.3831
  43   2.0000      -0.483812       -13.1652
  44   2.0000      -0.479542       -13.0490
  45   2.0000      -0.466690       -12.6993
  46   2.0000      -0.446380       -12.1466
  47   2.0000      -0.443528       -12.0690
  48   2.0000      -0.435520       -11.8511
  49   2.0000      -0.430475       -11.7138
  50   2.0000      -0.420034       -11.4297
  51   2.0000      -0.413554       -11.2534
  52   2.0000      -0.408469       -11.1150
  53   2.0000      -0.407265       -11.0823
  54   2.0000      -0.405368       -11.0306
  55   2.0000      -0.400800       -10.9063
  56   2.0000      -0.386690       -10.5224
  57   2.0000      -0.385292       -10.4843
  58   2.0000      -0.376817       -10.2537
  59   2.0000      -0.363934        -9.9031
  60   2.0000      -0.356807        -9.7092
  61   2.0000      -0.336944        -9.1687
  62   2.0000      -0.317315        -8.6346
  63   2.0000      -0.306548        -8.3416
  64   2.0000      -0.287847        -7.8327
  65   2.0000      -0.281155        -7.6506
  66   2.0000      -0.262335        -7.1385
  67   2.0000      -0.249543        -6.7904
  68   2.0000      -0.248788        -6.7699
  69   2.0000      -0.229516        -6.2454
  70   0.0000      -0.061989        -1.6868
  71   0.0000      -0.053779        -1.4634
  72   0.0000      -0.014855        -0.4042
  73   0.0000       0.012230         0.3328
  74   0.0000       0.039230         1.0675

MULLIKEN ATOMIC CHARGES
-----------------------
   0 C :   -0.214278
   1 C :   -0.220361
   2 C :   -0.221253
   3 C :    0.203410
   4 C :    0.036807
   5 O :   -0.387495
   6 C :    0.001048
   7 C :   -0.226006
   8 C :   -0.230806
   9 C :    0.123227
  10 C :   -0.013507
  11 N :   -0.377717
  12 C :   -0.046098
  13 C :   -0.297621
  14 C :   -0.100736
  15 C :    0.565680
  16 O :   -0.457170
  17 N :   -0.340852
  18 C :   -0.520615
  19 C :   -0.523640
  20 H :    0.234919
  21 H :    0.231926
  22 H :    0.234334
  23 H :    0.244884
  24 H :    0.233364
  25 H :    0.231568
  26 H :    0.228162
  27 H :    0.228393
  28 H :    0.228060
  29 H :    0.230121
  30 H :    0.228732
  31 H :    0.225780
  32 H :    0.230548
  33 H :    0.237192
Sum of atomic charges:   -0.0000000

LOEWDIN ATOMIC CHARGES
----------------------
   0 C :   -0.114490
   1 C :   -0.102160
   2 C :   -0.101648
   3 C :   -0.008545
   4 C :   -0.036862
   5 O :    0.047931
   6 C :   -0.029142
   7 C :   -0.093046
   8 C :   -0.098126
   9 C :   -0.031988
  10 C :   -0.048842
  11 N :   -0.017022
  12 C :   -0.099661
  13 C :   -0.128630
  14 C :   -0.060841
  15 C :   -0.111946
  16 O :   -0.192740
  17 N :    0.031171
  18 C :   -0.242419
  19 C :   -0.240001
  20 H :    0.117169
  21 H :    0.111536
  22 H :    0.114604
  23 H :    0.118431
  24 H :    0.114086
  25 H :    0.111109
  26 H :    0.124091
  27 H :    0.124821
  28 H :    0.124517
  29 H :    0.125766
  30 H :    0.125481
  31 H :    0.110824
  32 H :    0.127762
  33 H :    0.128808

  Mayer bond orders larger than 0.100000
B(  0-C ,  1-C ) :   1.3450 B(  0-C ,  3-C ) :   1.4986 B(  0-C , 27-H ) :   0.9211
B(  1-C ,  2-C ) :   1.5083 B(  1-C , 28-H ) :   0.9270 B(  2-C ,  6-C ) :   1.3190
B(  2-C , 26-H ) :   0.9230 B(  3-C ,  4-C ) :   1.2585 B(  3-C ,  5-O ) :   0.9093
B(  4-C ,  6-C ) :   1.3387 B(  4-C ,  9-C ) :   1.1903 B(  5-O , 15-C ) :   1.0178
B(  6-C ,  7-C ) :   1.1992 B(  7-C ,  8-C ) :   1.6578 B(  7-C , 29-H ) :   0.9205
B(  8-C , 10-C ) :   1.1871 B(  8-C , 30-H ) :   0.9238 B(  9-C , 10-C ) :   1.2390
B(  9-C , 11-N ) :   1.4567 B( 10-C , 14-C ) :   1.3095 B( 11-N , 12-C ) :   1.5634
B( 12-C , 13-C ) :   1.3207 B( 12-C , 31-H ) :   0.9266 B( 13-C , 14-C ) :   1.4955
B( 13-C , 32-H ) :   0.9221 B( 14-C , 33-H ) :   0.9253 B( 15-C , 16-O ) :   1.8924
B( 15-C , 17-N ) :   1.2093 B( 17-N , 18-C ) :   0.9516 B( 17-N , 19-C ) :   0.9628
B( 18-C , 23-H ) :   0.9150 B( 18-C , 24-H ) :   0.9196 B( 18-C , 25-H ) :   0.9159
B( 19-C , 20-H ) :   0.9160 B( 19-C , 21-H ) :   0.9184 B( 19-C , 22-H ) :   0.9209

FINAL SINGLE POINT ENERGY      -878.329383324548

DIPOLE MOMENT
-------------

Method             : SCF
Type of density    : Electron Density
Multiplicity       :   1
Irrep              :   0
Energy             :  -878.3293833245484166 Eh
Relativity type    :
Basis              : AO
                                X                 Y                 Z
Electronic contribution:      5.135621199      -6.379926146      -5.718189639
Nuclear contribution   :     -4.205079586       6.112107661       6.777951276
                        -----------------------------------------
Total Dipole Moment    :      0.930541613      -0.267818485       1.059761636
                        -----------------------------------------
Magnitude (a.u.)       :      1.435524002
Magnitude (Debye)      :      3.648812038

VIBRATIONAL FREQUENCIES
-----------------------

Scaling factor for frequencies =  1.000000000  (already applied!)

     0:       0.00 cm**-1
     1:       0.00 cm**-1
     2:       0.00 cm**-1
     3:       0.00 cm**-1
     4:       0.00 cm**-1
     5:       0.00 cm**-1
     6:      13.31 cm**-1
     7:      33.26 cm**-1
     8:      48.89 cm**-1
     9:      57.05 cm**-1
    10:      96.42 cm**-1
    11:     102.95 cm**-1
    12:     111.54 cm**-1
    13:     130.89 cm**-1
    14:     203.84 cm**-1
    15:     219.82 cm**-1
    16:     227.34 cm**-1
    17:     232.55 cm**-1
    18:     245.90 cm**-1
    19:     297.03 cm**-1
    20:     366.53 cm**-1
    21:     376.41 cm**-1
    22:     409.45 cm**-1
    23:     420.72 cm**-1
    24:     463.12 cm**-1
    25:     488.83 cm**-1
    26:     509.51 cm**-1
    27:     519.31 cm**-1
    28:     524.88 cm**-1
    29:     561.22 cm**-1
    30:     581.97 cm**-1
    31:     607.09 cm**-1
    32:     622.94 cm**-1
    33:     658.90 cm**-1
    34:     701.49 cm**-1
    35:     729.82 cm**-1
    36:     735.94 cm**-1
    37:     739.05 cm**-1
    38:     773.32 cm**-1
    39:     800.89 cm**-1
    40:     823.69 cm**-1
    41:     833.12 cm**-1
    42:     853.78 cm**-1
    43:     867.96 cm**-1
    44:     870.55 cm**-1
    45:     922.01 cm**-1
    46:     965.36 cm**-1
    47:     979.50 cm**-1
    48:     987.95 cm**-1
    49:     995.24 cm**-1
    50:    1000.86 cm**-1
    51:    1029.04 cm**-1
    52:    1046.55 cm**-1
    53:    1082.78 cm**-1
    54:    1084.18 cm**-1
    55:    1108.03 cm**-1
    56:    1134.49 cm**-1
    57:    1148.10 cm**-1
    58:    1161.19 cm**-1
    59:    1172.50 cm**-1
    60:    1181.23 cm**-1
    61:    1188.35 cm**-1
    62:    1220.94 cm**-1
    63:    1225.50 cm**-1
    64:    1257.67 cm**-1
    65:    1272.01 cm**-1
    66:    1285.28 cm**-1
    67:    1324.13 cm**-1
    68:    1342.43 cm**-1
    69:    1355.88 cm**-1
    70:    1412.10 cm**-1
    71:    1422.21 cm**-1
    72:    1447.21 cm**-1
    73:    1452.95 cm**-1
    74:    1457.29 cm**-1
    75:    1470.37 cm**-1
    76:    1478.05 cm**-1
    77:    1492.78 cm**-1
    78:    1501.75 cm**-1
    79:    1505.04 cm**-1
    80:    1531.60 cm**-1
    81:    1537.04 cm**-1
    82:    1548.55 cm**-1
    83:    1601.19 cm**-1
    84:    1633.14 cm**-1
    85:    1647.06 cm**-1
    86:    1661.73 cm**-1
    87:    1743.51 cm**-1
    88:    3024.43 cm**-1
    89:    3029.34 cm**-1
    90:    3075.45 cm**-1
    91:    3080.13 cm**-1
    92:    3150.72 cm**-1
    93:    3169.73 cm**-1
    94:    3173.09 cm**-1
    95:    3176.30 cm**-1
    96:    3176.91 cm**-1
    97:    3186.55 cm**-1
    98:    3189.45 cm**-1
    99:    3191.73 cm**-1
   100:    3201.06 cm**-1
   101:    3201.31 cm**-1

IR SPECTRUM
-----------

 Mode   freq       eps      Int      T**2         TX        TY        TZ
       cm**-1   L/(mol*cm) km/mol    a.u.
----------------------------------------------------------------------------
  6:     13.31   0.000206    1.04  0.004830  (-0.068738 -0.010195  0.000966)
  7:     33.26   0.000571    2.89  0.005358  ( 0.053931 -0.038795  0.030735)
  8:     48.89   0.000143    0.72  0.000912  ( 0.015202 -0.012266  0.023035)
  9:     57.05   0.000986    4.98  0.005392  ( 0.062450  0.032912  0.020229)
 10:     96.42   0.001143    5.77  0.003698  (-0.018971  0.033863 -0.046813)
 11:    102.95   0.001160    5.86  0.003517  ( 0.008770  0.054238 -0.022319)
 12:    111.54   0.000222    1.12  0.000622  (-0.022806  0.010029 -0.000975)
 13:    130.89   0.000406    2.05  0.000968  (-0.030438  0.003927 -0.005099)
 14:    203.84   0.000161    0.81  0.000247  (-0.010140  0.001232  0.011933)
 15:    219.82   0.001211    6.12  0.001719  (-0.038880  0.002321  0.014219)
 16:    227.34   0.000610    3.08  0.000838  (-0.028507  0.004923  0.000853)
 17:    232.55   0.001387    7.01  0.001861  (-0.004234 -0.026296  0.033942)
 18:    245.90   0.000257    1.30  0.000327  (-0.012733 -0.007472 -0.010420)
 19:    297.03   0.000146    0.74  0.000154  (-0.000691 -0.007891  0.009533)
 20:    366.53   0.003204   16.19  0.002728  (-0.018797  0.042576  0.023703)
 21:    376.41   0.001649    8.33  0.001367  ( 0.016407 -0.032447 -0.006693)
 22:    409.45   0.000772    3.90  0.000589  ( 0.011519 -0.009521 -0.019113)
 23:    420.72   0.000049    0.25  0.000036  ( 0.003040 -0.004321 -0.002882)
 24:    463.12   0.001851    9.35  0.001247  (-0.013907  0.025245 -0.020409)
 25:    488.83   0.000149    0.75  0.000095  ( 0.002751 -0.004562 -0.008169)
 26:    509.51   0.000054    0.27  0.000033  ( 0.004907  0.002954 -0.000327)
 27:    519.31   0.001048    5.29  0.000629  (-0.000608  0.024907 -0.002955)
 28:    524.88   0.000988    4.99  0.000587  ( 0.022566  0.007143  0.005184)
 29:    561.22   0.001214    6.13  0.000675  ( 0.013023  0.014448  0.017221)
 30:    581.97   0.000224    1.13  0.000120  (-0.006085  0.000717  0.009090)
 31:    607.09   0.001636    8.27  0.000841  (-0.019484  0.004033  0.021091)
 32:    622.94   0.002460   12.43  0.001232  ( 0.030819  0.014542 -0.008414)
 33:    658.90   0.001913    9.67  0.000906  ( 0.020061  0.009394  0.020377)
 34:    701.49   0.000471    2.38  0.000210  (-0.009606  0.005095  0.009559)
 35:    729.82   0.002078   10.50  0.000889  ( 0.008764 -0.016997  0.022869)
 36:    735.94   0.013717   69.32  0.005816  (-0.030083 -0.063815  0.028967)
 37:    739.05   0.010400   52.56  0.004391  ( 0.056618 -0.010949  0.032647)
 38:    773.32   0.004738   23.94  0.001912  ( 0.011564 -0.017712  0.038268)
 39:    800.89   0.000254    1.28  0.000099  ( 0.003441  0.009198 -0.001539)
 40:    823.69   0.003888   19.65  0.001473  ( 0.020092 -0.003825  0.032477)
 41:    833.12   0.003839   19.40  0.001438  (-0.021153 -0.000010  0.031475)
 42:    853.78   0.010747   54.31  0.003928  ( 0.006005 -0.039695  0.048127)
 43:    867.96   0.013404   67.74  0.004819  ( 0.013554 -0.061255  0.029723)
 44:    870.55   0.001161    5.87  0.000416  ( 0.006276  0.019404  0.000419)
 45:    922.01   0.000660    3.34  0.000223  (-0.004499  0.012774  0.006324)
 46:    965.36   0.000113    0.57  0.000036  (-0.000482  0.004296 -0.004208)
 47:    979.50   0.000075    0.38  0.000024  (-0.000169 -0.002656  0.004084)
 48:    987.95   0.000140    0.71  0.000044  (-0.000527 -0.002720  0.006054)
 49:    995.24   0.004892   24.72  0.001534  (-0.017993 -0.002690  0.034681)
 50:   1000.86   0.000194    0.98  0.000061  ( 0.000556 -0.005596  0.005386)
 51:   1029.04   0.009078   45.87  0.002753  ( 0.044050 -0.028483 -0.001084)
 52:   1046.55   0.008631   43.62  0.002574  ( 0.026955 -0.042972 -0.000713)
 53:   1082.78   0.004040   20.42  0.001164  ( 0.010186 -0.032463 -0.002621)
 54:   1084.18   0.001230    6.22  0.000354  (-0.002041  0.015972 -0.009740)
 55:   1108.03   0.000576    2.91  0.000162  (-0.012123 -0.003142 -0.002299)
 56:   1134.49   0.000791    4.00  0.000217  (-0.006043  0.013441  0.000546)
 57:   1148.10   0.006678   33.75  0.001815  (-0.009574 -0.037331 -0.018165)
 58:   1161.19   0.196349  992.27  0.052768  (-0.104053  0.174034  0.107949)
 59:   1172.50   0.003108   15.71  0.000827  (-0.007480  0.021472  0.017614)
 60:   1181.23   0.007301   36.90  0.001929  (-0.012286  0.038912  0.016239)
 61:   1188.35   0.003523   17.80  0.000925  ( 0.013858 -0.026631 -0.004890)
 62:   1220.94   0.004353   22.00  0.001113  (-0.008407  0.028066  0.015947)
 63:   1225.50   0.009091   45.94  0.002315  (-0.022338  0.038256  0.018774)
 64:   1257.67   0.029236  147.75  0.007254  (-0.049848  0.064454  0.024805)
 65:   1272.01   0.004566   23.08  0.001120  (-0.011616  0.030072  0.008997)
 66:   1285.28   0.002878   14.54  0.000699  ( 0.004404  0.020583 -0.015992)
 67:   1324.13   0.003010   15.21  0.000709  ( 0.017812 -0.015647 -0.012136)
 68:   1342.43   0.006363   32.16  0.001479  (-0.021020  0.025393  0.019812)
 69:   1355.88   0.001969    9.95  0.000453  ( 0.015244 -0.011223 -0.009733)
 70:   1412.10   0.022269  112.54  0.004921  ( 0.007206  0.056917  0.040372)
 71:   1422.21   0.045852  231.72  0.010061  (-0.046726  0.077311  0.043596)
 72:   1447.21   0.003546   17.92  0.000765  ( 0.003388  0.005130 -0.026962)
 73:   1452.95   0.002273   11.49  0.000488  (-0.002316 -0.018876 -0.011250)
 74:   1457.29   0.005643   28.52  0.001208  (-0.000753 -0.027147 -0.021700)
 75:   1470.37   0.008266   41.78  0.001754  ( 0.027659 -0.028512  0.013283)
 76:   1478.05   0.002919   14.75  0.000616  (-0.016854 -0.010941  0.014575)
 77:   1492.78   0.000207    1.05  0.000043  ( 0.003168  0.001597 -0.005541)
 78:   1501.75   0.005928   29.96  0.001232  (-0.034652 -0.003524 -0.004326)
 79:   1505.04   0.004460   22.54  0.000925  ( 0.009971  0.021806 -0.018706)
 80:   1531.60   0.001394    7.04  0.000284  ( 0.012969 -0.008676  0.006368)
 81:   1537.04   0.014678   74.18  0.002980  ( 0.013292 -0.052593 -0.006106)
 82:   1548.55   0.010334   52.23  0.002083  (-0.024281  0.033951  0.018449)
 83:   1601.19   0.007967   40.26  0.001553  ( 0.037952 -0.004891 -0.009401)
 84:   1633.14   0.010902   55.09  0.002083  (-0.008554 -0.033373 -0.029938)
 85:   1647.06   0.001257    6.35  0.000238  (-0.007780 -0.008936 -0.009886)
 86:   1661.73   0.004271   21.58  0.000802  ( 0.027491  0.006784  0.000493)
 87:   1743.51   0.176180  890.34  0.031534  ( 0.037737  0.006932 -0.173383)
 88:   3024.43   0.007244   36.61  0.000747  (-0.001316  0.024079 -0.012878)
 89:   3029.34   0.024780  125.23  0.002553  ( 0.000630 -0.028671 -0.041597)
 90:   3075.45   0.020869  105.46  0.002118  (-0.045796 -0.003870  0.002314)
 91:   3080.13   0.002362   11.94  0.000239  (-0.015421  0.001126 -0.000449)
 92:   3150.72   0.009522   48.12  0.000943  ( 0.004330 -0.021490 -0.021507)
 93:   3169.73   0.000289    1.46  0.000028  ( 0.004867  0.001878  0.001120)
 94:   3173.09   0.001696    8.57  0.000167  ( 0.000041 -0.004163  0.012224)
 95:   3176.30   0.001386    7.00  0.000136  (-0.009902  0.003506  0.005083)
 96:   3176.91   0.001370    6.92  0.000135  ( 0.011177 -0.001529 -0.002695)
 97:   3186.55   0.005080   25.67  0.000497  (-0.019259  0.006658  0.009068)
 98:   3189.45   0.009623   48.63  0.000942  (-0.008475  0.020843  0.020864)
 99:   3191.73   0.001825    9.22  0.000178  (-0.003239  0.012924  0.000943)
100:   3201.06   0.010905   55.11  0.001063  ( 0.023774  0.017792  0.013465)
101:   3201.31   0.000433    2.19  0.000042  (-0.002425 -0.004160 -0.004359)

--------------------------
THERMOCHEMISTRY AT 298.15K
--------------------------

Temperature         ...   298.15 K
Pressure            ...     1.00 atm
Total Mass          ...   266.30 AMU
Quasi RRHO          ...     True
Cut-Off Frequency   ...     1.00 cm^-1

Throughout the following assumptions are being made:
  (1) The electronic state is orbitally nondegenerate
  (2) There are no thermally accessible electronically excited states
  (3) Hindered rotations indicated by low frequency modes are not
      treated as such but are treated as vibrations and this may
      cause some error
  (4) All equations used are the standard statistical mechanics
      equations for an ideal gas
  (5) All vibrations are strictly harmonic

freq.      13.31  E(vib)   ...       0.57
freq.      33.26  E(vib)   ...       0.55
freq.      48.89  E(vib)   ...       0.53
freq.      57.05  E(vib)   ...       0.51
freq.      96.42  E(vib)   ...       0.47
freq.     102.95  E(vib)   ...       0.46
freq.     111.54  E(vib)   ...       0.45
freq.     130.89  E(vib)   ...       0.42
freq.     203.84  E(vib)   ...       0.35
freq.     219.82  E(vib)   ...       0.33
freq.     227.34  E(vib)   ...       0.33
freq.     232.55  E(vib)   ...       0.32
freq.     245.90  E(vib)   ...       0.31
freq.     297.03  E(vib)   ...       0.27
freq.     366.53  E(vib)   ...       0.22
freq.     376.41  E(vib)   ...       0.21
freq.     409.45  E(vib)   ...       0.19
freq.     420.72  E(vib)   ...       0.18
freq.     463.12  E(vib)   ...       0.16
freq.     488.83  E(vib)   ...       0.15
freq.     509.51  E(vib)   ...       0.14
freq.     519.31  E(vib)   ...       0.13
freq.     524.88  E(vib)   ...       0.13
freq.     561.22  E(vib)   ...       0.11
freq.     581.97  E(vib)   ...       0.11
freq.     607.09  E(vib)   ...       0.10
freq.     622.94  E(vib)   ...       0.09
freq.     658.90  E(vib)   ...       0.08
freq.     701.49  E(vib)   ...       0.07
freq.     729.82  E(vib)   ...       0.06
freq.     735.94  E(vib)   ...       0.06
freq.     739.05  E(vib)   ...       0.06
freq.     773.32  E(vib)   ...       0.05
freq.     800.89  E(vib)   ...       0.05
freq.     823.69  E(vib)   ...       0.05
freq.     833.12  E(vib)   ...       0.04
freq.     853.78  E(vib)   ...       0.04
freq.     867.96  E(vib)   ...       0.04
freq.     870.55  E(vib)   ...       0.04
freq.     922.01  E(vib)   ...       0.03
freq.     965.36  E(vib)   ...       0.03
freq.     979.50  E(vib)   ...       0.03
freq.     987.95  E(vib)   ...       0.02
freq.     995.24  E(vib)   ...       0.02
freq.    1000.86  E(vib)   ...       0.02
freq.    1029.04  E(vib)   ...       0.02
freq.    1046.55  E(vib)   ...       0.02
freq.    1082.78  E(vib)   ...       0.02
freq.    1084.18  E(vib)   ...       0.02
freq.    1108.03  E(vib)   ...       0.02
freq.    1134.49  E(vib)   ...       0.01
freq.    1148.10  E(vib)   ...       0.01
freq.    1161.19  E(vib)   ...       0.01
freq.    1172.50  E(vib)   ...       0.01
freq.    1181.23  E(vib)   ...       0.01
freq.    1188.35  E(vib)   ...       0.01
freq.    1220.94  E(vib)   ...       0.01
freq.    1225.50  E(vib)   ...       0.01
freq.    1257.67  E(vib)   ...       0.01
freq.    1272.01  E(vib)   ...       0.01
freq.    1285.28  E(vib)   ...       0.01
freq.    1324.13  E(vib)   ...       0.01
freq.    1342.43  E(vib)   ...       0.01
freq.    1355.88  E(vib)   ...       0.01
freq.    1412.10  E(vib)   ...       0.00
freq.    1422.21  E(vib)   ...       0.00
freq.    1447.21  E(vib)   ...       0.00
freq.    1452.95  E(vib)   ...       0.00
freq.    1457.29  E(vib)   ...       0.00
freq.    1470.37  E(vib)   ...       0.00
freq.    1478.05  E(vib)   ...       0.00
freq.    1492.78  E(vib)   ...       0.00
freq.    1501.75  E(vib)   ...       0.00
freq.    1505.04  E(vib)   ...       0.00
freq.    1531.60  E(vib)   ...       0.00
freq.    1537.04  E(vib)   ...       0.00
freq.    1548.55  E(vib)   ...       0.00
freq.    1601.19  E(vib)   ...       0.00
freq.    1633.14  E(vib)   ...       0.00
freq.    1647.06  E(vib)   ...       0.00
freq.    1661.73  E(vib)   ...       0.00
freq.    1743.51  E(vib)   ...       0.00
freq.    3024.43  E(vib)   ...       0.00
freq.    3029.34  E(vib)   ...       0.00
freq.    3075.45  E(vib)   ...       0.00
freq.    3080.13  E(vib)   ...       0.00
freq.    3150.72  E(vib)   ...       0.00
freq.    3169.73  E(vib)   ...       0.00
freq.    3173.09  E(vib)   ...       0.00
freq.    3176.30  E(vib)   ...       0.00
freq.    3176.91  E(vib)   ...       0.00
freq.    3186.55  E(vib)   ...       0.00
freq.    3189.45  E(vib)   ...       0.00
freq.    3191.73  E(vib)   ...       0.00
freq.    3201.06  E(vib)   ...       0.00
freq.    3201.31  E(vib)   ...       0.00

------------
INNER ENERGY
------------

The inner energy is: U= E(el) + E(ZPE) + E(vib) + E(rot) + E(trans)
    E(el)   - is the total energy from the electronic structure calculation
              = E(kin-el) + E(nuc-el) + E(el-el) + E(nuc-nuc)
    E(ZPE)  - the the zero temperature vibrational energy from the frequency calculation
    E(vib)  - the the finite temperature correction to E(ZPE) due to population
              of excited vibrational states
    E(rot)  - is the rotational thermal energy
    E(trans)- is the translational thermal energy

Summary of contributions to the inner energy U:
Electronic energy                ...   -878.32938332 Eh
Zero point energy                ...      0.26860100 Eh     168.55 kcal/mol
Thermal vibrational correction   ...      0.01409041 Eh       8.84 kcal/mol
Thermal rotational correction    ...      0.00141627 Eh       0.89 kcal/mol
Thermal translational correction ...      0.00141627 Eh       0.89 kcal/mol
-----------------------------------------------------------------------
Total thermal energy                   -878.04385937 Eh

Summary of corrections to the electronic energy:
(perhaps to be used in another calculation)
Total thermal correction                  0.01692295 Eh      10.62 kcal/mol
Non-thermal (ZPE) correction              0.26860100 Eh     168.55 kcal/mol
-----------------------------------------------------------------------
Total correction                          0.28552395 Eh     179.17 kcal/mol

--------
ENTHALPY
--------

The enthalpy is H = U + kB*T
                kB is Boltzmann's constant
Total thermal energy              ...   -878.04385937 Eh
Thermal Enthalpy correction       ...      0.00094421 Eh       0.59 kcal/mol
-----------------------------------------------------------------------
Total Enthalpy                    ...   -878.04291516 Eh

Note: Only C1 symmetry has been detected, increase convergence thresholds
      if your molecule has a higher symmetry. Symmetry factor of 1.0 is

Rotational constants in cm-1:     0.016105     0.011068     0.007153

                             ****ORCA TERMINATED NORMALLY****
TOTAL RUN TIME: 0 days 3 hours 22 minutes 33 seconds 632 msec
