                         Program Version 5.0.1 -  RELEASE  -
|  1> # avogadro generated ORCA input file
|  2> # Advanced Mode
|  3> #
|  4> ! B3LYP/G OPT Def2-TZVP(-f) Def2-TZVP/C Def2/J RIJCOSX TightSCF CPCM(Water)
|  5> %scf
|  6> 	MaxIter 125
|  7> 	CNVDIIS 1
|  8> 	CNVSOSCF 1
|  9> end
| 10>
| 11> * xyz 1 1
| 12>    C       -6.52579       -1.66225        0.00276
| 13>    C       -6.46732       -2.89018       -0.91965
| 14>    C       -5.38681       -3.85445       -0.40741
| 15>    H       -6.22732       -2.57278       -1.93783
| 16>    H       -7.43834       -3.38987       -0.94563
| 17>    C       -4.06259       -3.13781       -0.17971
| 18>    H       -5.26043       -4.66529       -1.12896
| 19>    H       -5.71609       -4.30232        0.53321
| 20>    C       -4.02922       -1.74920        0.05721
| 21>    N       -5.20697       -1.01658        0.09940
| 22>    H       -6.84866       -1.97186        1.00085
| 23>    H       -7.26026       -0.95654       -0.39558
| 24>    C       -5.22277        0.37600        0.57461
| 25>    C       -3.97438        1.12900        0.08763
| 26>    H       -5.24868        0.38274        1.66812
| 27>    H       -6.11324        0.89157        0.20410
| 28>    C       -2.71316        0.38456        0.55260
| 29>    H       -3.97301        2.14982        0.47653
| 30>    H       -3.98561        1.18758       -1.00372
| 31>    C       -2.79261       -1.10564        0.23908
| 32>    H       -2.59289        0.51130        1.63100
| 33>    H       -1.84179        0.83572        0.07294
| 34>    C       -2.88989       -3.89798       -0.19580
| 35>    C       -1.57875       -1.88323        0.21522
| 36>    C       -1.64825       -3.30059       -0.00293
| 37>    O       -0.36750       -1.24243        0.03312
| 38>    C        0.83818       -1.86094        0.00816
| 39>    C       -0.47469       -4.04186       -0.03135
| 40>    C        0.77715       -3.33463        0.04157
| 41>    O        1.86788       -1.21799       -0.02459
| 42>    C        1.95755       -4.16004        0.08087
| 43>    C        2.87456       -4.02280        1.12012
| 44>    C        2.20497       -5.09163       -0.92919
| 45>    N        3.28521       -5.94628       -0.87181
| 46>    C        4.23211       -5.72197        0.08585
| 47>    C        4.02925       -4.79633        1.10811
| 48>    H        1.51115       -5.24560       -1.75507
| 49>    H        4.77558       -4.67401        1.88900
| 50>    H        5.12260       -6.34646        0.04157
| 51>    H        2.70935       -3.29845        1.91436
| 52>    H       -2.94784       -4.97011       -0.37052
| 53>    H       -0.51497       -5.11660       -0.19435
| 54>    P        3.47756       -7.37894       -1.85567
| 55>    O        2.81629       -8.23814       -2.86331
| 56>    O        3.44011       -6.19882       -2.94965
| 57>    O        2.18705       -7.67771       -0.94373
| 58>    C        2.27070       -8.67930        0.09352
| 59>    C        4.64389       -5.77422       -3.63516
| 60>    C        0.94334       -8.68989        0.86659
| 61>    H        3.09316       -8.42922        0.76930
| 62>    H        2.45282       -9.65577       -0.36385
| 63>    H        4.40760       -4.86168       -4.18830
| 64>    C        5.12209       -6.85519       -4.62330
| 65>    H        5.42218       -5.55321       -2.89977
| 66>    H        0.75068       -7.70838        1.30597
| 67>    H        0.97955       -9.42831        1.67033
| 68>    H        0.11540       -8.94222        0.20038
| 69>    H        4.31434       -7.13672       -5.30280
| 70>    H        5.45894       -7.74848       -4.09298
| 71>    H        5.95638       -6.47758       -5.21806
| 72>
| 73>
| 74> *
| 75>
| 76>
| 77>                          ****END OF INPUT****
 Total Charge           Charge          ....    1
 Multiplicity           Mult            ....    1
 Number of Electrons    NEL             ....  240
FINAL SINGLE POINT ENERGY     -1758.602610770626
FINAL SINGLE POINT ENERGY     -1758.668700897633
FINAL SINGLE POINT ENERGY     -1758.709534505880
FINAL SINGLE POINT ENERGY     -1758.737834463097
FINAL SINGLE POINT ENERGY     -1758.761741488401
FINAL SINGLE POINT ENERGY     -1758.769845320171
FINAL SINGLE POINT ENERGY     -1758.778510647962
FINAL SINGLE POINT ENERGY     -1758.782297342408
FINAL SINGLE POINT ENERGY     -1758.783864932291
FINAL SINGLE POINT ENERGY     -1758.785362772210
FINAL SINGLE POINT ENERGY     -1758.924143421067
FINAL SINGLE POINT ENERGY     -1758.924141455874
FINAL SINGLE POINT ENERGY     -1758.924140773504
FINAL SINGLE POINT ENERGY     -1758.924136637237
FINAL SINGLE POINT ENERGY     -1758.924134435245
FINAL SINGLE POINT ENERGY     -1758.924131615579
FINAL SINGLE POINT ENERGY     -1758.924129764603
FINAL SINGLE POINT ENERGY     -1758.924130227544
FINAL SINGLE POINT ENERGY     -1758.924132004493
                    ***********************HURRAY********************

CARTESIAN COORDINATES (ANGSTROEM)
---------------------------------
  C     -6.469445   -1.534985   -0.100282
  C     -6.420961   -2.802241   -0.935032
  C     -5.391337   -3.757874   -0.345789
  H     -6.158161   -2.550449   -1.965933
  H     -7.411310   -3.259269   -0.949256
  C     -4.059841   -3.071797   -0.154142
  H     -5.261424   -4.636071   -0.980084
  H     -5.754969   -4.120726    0.621895
  C     -4.005314   -1.649567    0.041379
  N     -5.149604   -0.911178    0.013137
  H     -6.863227   -1.756912    0.899937
  H     -7.135613   -0.801314   -0.555166
  C     -5.141406    0.498693    0.404006
  C     -3.881641    1.194943   -0.079030
  H     -5.228481    0.583044    1.494958
  H     -6.026561    0.962995   -0.029882
  C     -2.648940    0.478852    0.459838
  H     -3.893417    2.234867    0.249953
  H     -3.868594    1.195449   -1.171947
  C     -2.750651   -1.013307    0.253072
  H     -2.535742    0.693594    1.527930
  H     -1.748106    0.857117   -0.024167
  C     -2.898146   -3.796861   -0.147765
  C     -1.618779   -1.804285    0.265763
  C     -1.641252   -3.195484    0.065356
  O     -0.418923   -1.178931    0.493495
  C      0.794008   -1.834485    0.533102
  C     -0.423841   -3.896026    0.103286
  C      0.778177   -3.268612    0.330226
  O      1.774050   -1.136259    0.722786
  C      2.050652   -4.004509    0.358096
  C      3.112173   -3.669854    1.216187
  C      2.243849   -5.093004   -0.480987
  N      3.387615   -5.814399   -0.458201
  C      4.404968   -5.493913    0.370256
  C      4.280998   -4.413026    1.215419
  H      1.499677   -5.403690   -1.198744
  H      5.098167   -4.166012    1.877462
  H      5.281679   -6.119687    0.319737
  H      3.011283   -2.831327    1.887704
  H     -2.938379   -4.869069   -0.303236
  H     -0.455767   -4.971297   -0.031730
  P      3.555749   -7.241448   -1.542350
  O      4.919702   -7.747927   -1.379051
  O      3.071869   -6.697022   -2.919439
  O      2.335419   -8.127791   -1.143668
  C      2.355564   -8.986833    0.061852
  C      3.965303   -5.957420   -3.843244
  C      1.025388   -9.690317    0.140566
  H      2.528033   -8.345114    0.925430
  H      3.184348   -9.683082   -0.048839
  H      3.349660   -5.137345   -4.203337
  C      4.417403   -6.867054   -4.957672
  H      4.801698   -5.552516   -3.275291
  H      0.208419   -8.974376    0.233629
  H      1.022799  -10.333619    1.022370
  H      0.859419  -10.311417   -0.740048
  H      3.562602   -7.274547   -5.498251
  H      5.024042   -7.688411   -4.575722
  H      5.022907   -6.287084   -5.657142

 Multiplicity           Mult            ....    1
 Number of Electrons    NEL             ....  240
 Basis Dimension        Dim             ....  942

ORBITAL ENERGIES
----------------

  NO   OCC          E(Eh)            E(eV)
   0   2.0000     -77.221245     -2101.2969
   1   2.0000     -19.201652      -522.5035
   2   2.0000     -19.190738      -522.2065
   3   2.0000     -19.190176      -522.1912
   4   2.0000     -19.127662      -520.4901
   5   2.0000     -19.119753      -520.2749
   6   2.0000     -14.438163      -392.8824
   7   2.0000     -14.351915      -390.5355
   8   2.0000     -10.317015      -280.7402
   9   2.0000     -10.267109      -279.3822
  10   2.0000     -10.263541      -279.2851
  11   2.0000     -10.253580      -279.0141
  12   2.0000     -10.248960      -278.8884
  13   2.0000     -10.248052      -278.8637
  14   2.0000     -10.237759      -278.5836
  15   2.0000     -10.236649      -278.5534
  16   2.0000     -10.229252      -278.3521
  17   2.0000     -10.218835      -278.0686
  18   2.0000     -10.214919      -277.9621
  19   2.0000     -10.208094      -277.7764
  20   2.0000     -10.205596      -277.7084
  21   2.0000     -10.204997      -277.6921
  22   2.0000     -10.191449      -277.3234
  23   2.0000     -10.187874      -277.2261
  24   2.0000     -10.187846      -277.2254
  25   2.0000     -10.185504      -277.1617
  26   2.0000     -10.176309      -276.9114
  27   2.0000     -10.174542      -276.8634
  28   2.0000     -10.171566      -276.7824
  29   2.0000     -10.171522      -276.7812
  30   2.0000     -10.171086      -276.7693
  31   2.0000     -10.170650      -276.7574
  32   2.0000      -6.689138      -182.0207
  33   2.0000      -4.852160      -132.0340
  34   2.0000      -4.850907      -131.9999
  35   2.0000      -4.849880      -131.9719
  36   2.0000      -1.128714       -30.7139
  37   2.0000      -1.122493       -30.5446
  38   2.0000      -1.066324       -29.0161
  39   2.0000      -1.040696       -28.3188
  40   2.0000      -1.037691       -28.2370
  41   2.0000      -1.007645       -27.4194
  42   2.0000      -0.973770       -26.4976
  43   2.0000      -0.883365       -24.0376
  44   2.0000      -0.869488       -23.6600
  45   2.0000      -0.842240       -22.9185
  46   2.0000      -0.831547       -22.6276
  47   2.0000      -0.816306       -22.2128
  48   2.0000      -0.796164       -21.6647
  49   2.0000      -0.780796       -21.2465
  50   2.0000      -0.774542       -21.0764
  51   2.0000      -0.771796       -21.0016
  52   2.0000      -0.765487       -20.8300
  53   2.0000      -0.708957       -19.2917
  54   2.0000      -0.700739       -19.0681
  55   2.0000      -0.695901       -18.9364
  56   2.0000      -0.675023       -18.3683
  57   2.0000      -0.673549       -18.3282
  58   2.0000      -0.660735       -17.9795
  59   2.0000      -0.641483       -17.4556
  60   2.0000      -0.638195       -17.3662
  61   2.0000      -0.637226       -17.3398
  62   2.0000      -0.624079       -16.9821
  63   2.0000      -0.605282       -16.4706
  64   2.0000      -0.574712       -15.6387
  65   2.0000      -0.567163       -15.4333
  66   2.0000      -0.553757       -15.0685
  67   2.0000      -0.549890       -14.9633
  68   2.0000      -0.542239       -14.7551
  69   2.0000      -0.530132       -14.4256
  70   2.0000      -0.529873       -14.4186
  71   2.0000      -0.523830       -14.2541
  72   2.0000      -0.506395       -13.7797
  73   2.0000      -0.501300       -13.6411
  74   2.0000      -0.497332       -13.5331
  75   2.0000      -0.488748       -13.2995
  76   2.0000      -0.486978       -13.2513
  77   2.0000      -0.478311       -13.0155
  78   2.0000      -0.477834       -13.0025
  79   2.0000      -0.475216       -12.9313
  80   2.0000      -0.468815       -12.7571
  81   2.0000      -0.464175       -12.6308
  82   2.0000      -0.457707       -12.4548
  83   2.0000      -0.454549       -12.3689
  84   2.0000      -0.448389       -12.2013
  85   2.0000      -0.445469       -12.1218
  86   2.0000      -0.438841       -11.9415
  87   2.0000      -0.435401       -11.8479
  88   2.0000      -0.433077       -11.7846
  89   2.0000      -0.424605       -11.5541
  90   2.0000      -0.416602       -11.3363
  91   2.0000      -0.414535       -11.2801
  92   2.0000      -0.413020       -11.2388
  93   2.0000      -0.410065       -11.1584
  94   2.0000      -0.406934       -11.0732
  95   2.0000      -0.401220       -10.9177
  96   2.0000      -0.400880       -10.9085
  97   2.0000      -0.392212       -10.6726
  98   2.0000      -0.390611       -10.6291
  99   2.0000      -0.383934       -10.4474
 100   2.0000      -0.377565       -10.2741
 101   2.0000      -0.371226       -10.1016
 102   2.0000      -0.369027       -10.0417
 103   2.0000      -0.366318        -9.9680
 104   2.0000      -0.361928        -9.8486
 105   2.0000      -0.356706        -9.7065
 106   2.0000      -0.349597        -9.5130
 107   2.0000      -0.347911        -9.4671
 108   2.0000      -0.345115        -9.3910
 109   2.0000      -0.342964        -9.3325
 110   2.0000      -0.340998        -9.2790
 111   2.0000      -0.339911        -9.2494
 112   2.0000      -0.331392        -9.0176
 113   2.0000      -0.326106        -8.8738
 114   2.0000      -0.322520        -8.7762
 115   2.0000      -0.313920        -8.5422
 116   2.0000      -0.298249        -8.1158
 117   2.0000      -0.271977        -7.4009
 118   2.0000      -0.245633        -6.6840
 119   2.0000      -0.201083        -5.4717
 120   0.0000      -0.100510        -2.7350
 121   0.0000      -0.084592        -2.3019
 122   0.0000      -0.050599        -1.3769
 123   0.0000      -0.015782        -0.4295
 124   0.0000      -0.003475        -0.0946

MULLIKEN ATOMIC CHARGES
-----------------------
   0 C :   -0.114671
   1 C :   -0.166239
   2 C :   -0.231366
   3 H :    0.103939
   4 H :    0.119516
   5 C :    0.237206
   6 H :    0.128157
   7 H :    0.113146
   8 C :    0.007037
   9 N :   -0.137333
  10 H :    0.110781
  11 H :    0.133360
  12 C :   -0.116102
  13 C :   -0.153737
  14 H :    0.110901
  15 H :    0.135535
  16 C :   -0.270551
  17 H :    0.119275
  18 H :    0.104056
  19 C :    0.098627
  20 H :    0.115296
  21 H :    0.127213
  22 C :   -0.545820
  23 C :    0.086983
  24 C :    0.455325
  25 O :   -0.372442
  26 C :    0.431333
  27 C :   -0.320986
  28 C :    0.138164
  29 O :   -0.565741
  30 C :    0.285194
  31 C :   -0.176697
  32 C :   -0.083613
  33 N :   -0.240113
  34 C :    0.056388
  35 C :   -0.010123
  36 H :    0.180434
  37 H :    0.150199
  38 H :    0.181032
  39 H :    0.151201
  40 H :    0.094244
  41 H :    0.153944
  42 P :    1.539326
  43 O :   -0.771569
  44 O :   -0.511375
  45 O :   -0.516133
  46 C :   -0.023574
  47 C :   -0.007571
  48 C :   -0.356744
  49 H :    0.145742
  50 H :    0.142692
  51 H :    0.144116
  52 C :   -0.352689
  53 H :    0.138673
  54 H :    0.134353
  55 H :    0.138517
  56 H :    0.131029
  57 H :    0.129469
  58 H :    0.132314
  59 H :    0.140472
Sum of atomic charges:    1.0000000

LOEWDIN ATOMIC CHARGES
----------------------
   0 C :   -0.186463
   1 C :   -0.217854
   2 C :   -0.185548
   3 H :    0.130088
   4 H :    0.132343
   5 C :   -0.102214
   6 H :    0.137012
   7 H :    0.138360
   8 C :   -0.062325
   9 N :    0.131845
  10 H :    0.126655
  11 H :    0.131315
  12 C :   -0.184445
  13 C :   -0.216485
  14 H :    0.127121
  15 H :    0.131688
  16 C :   -0.186220
  17 H :    0.132346
  18 H :    0.130548
  19 C :   -0.086205
  20 H :    0.138481
  21 H :    0.136532
  22 C :   -0.059966
  23 C :   -0.084392
  24 C :   -0.129441
  25 O :    0.223882
  26 C :   -0.248216
  27 C :   -0.006263
  28 C :   -0.102912
  29 O :   -0.065707
  30 C :   -0.073082
  31 C :    0.001606
  32 C :   -0.027177
  33 N :    0.075885
  34 C :   -0.063024
  35 C :   -0.082427
  36 H :    0.162148
  37 H :    0.161917
  38 H :    0.158339
  39 H :    0.160824
  40 H :    0.151082
  41 H :    0.160936
  42 P :    0.764642
  43 O :   -0.425276
  44 O :   -0.103242
  45 O :   -0.104115
  46 C :   -0.214156
  47 C :   -0.209985
  48 C :   -0.272934
  49 H :    0.125284
  50 H :    0.124784
  51 H :    0.128439
  52 C :   -0.274971
  53 H :    0.124834
  54 H :    0.117793
  55 H :    0.127821
  56 H :    0.117974
  57 H :    0.118125
  58 H :    0.116505
  59 H :    0.127891

  Mayer bond orders larger than 0.100000
B(  0-C ,  1-C ) :   1.0041 B(  0-C ,  9-N ) :   0.9443 B(  0-C , 10-H ) :   0.9476
B(  0-C , 11-H ) :   0.9509 B(  1-C ,  2-C ) :   1.0217 B(  1-C ,  3-H ) :   0.9683
B(  1-C ,  4-H ) :   0.9601 B(  2-C ,  5-C ) :   0.9952 B(  2-C ,  6-H ) :   0.9555
B(  2-C ,  7-H ) :   0.9460 B(  5-C ,  8-C ) :   1.2310 B(  5-C , 22-C ) :   1.4074
B(  8-C ,  9-N ) :   1.3775 B(  8-C , 19-C ) :   1.2429 B(  9-N , 12-C ) :   0.9441
B( 12-C , 13-C ) :   0.9978 B( 12-C , 14-H ) :   0.9481 B( 12-C , 15-H ) :   0.9525
B( 13-C , 16-C ) :   1.0366 B( 13-C , 17-H ) :   0.9626 B( 13-C , 18-H ) :   0.9665
B( 16-C , 19-C ) :   1.0398 B( 16-C , 20-H ) :   0.9533 B( 16-C , 21-H ) :   0.9463
B( 19-C , 23-C ) :   1.3438 B( 22-C , 24-C ) :   1.0869 B( 22-C , 40-H ) :   1.0487
B( 23-C , 24-C ) :   1.3445 B( 23-C , 25-O ) :   1.0243 B( 24-C , 27-C ) :   1.1643
B( 25-O , 26-C ) :   1.1035 B( 26-C , 28-C ) :   1.1285 B( 26-C , 29-O ) :   1.9033
B( 27-C , 28-C ) :   1.3886 B( 27-C , 41-H ) :   0.9535 B( 28-C , 30-C ) :   0.9600
B( 30-C , 31-C ) :   1.3324 B( 30-C , 32-C ) :   1.4044 B( 31-C , 35-C ) :   1.4130
B( 31-C , 39-H ) :   0.9556 B( 32-C , 33-N ) :   1.3038 B( 32-C , 36-H ) :   0.9346
B( 33-N , 34-C ) :   1.3053 B( 33-N , 42-P ) :   0.7277 B( 34-C , 35-C ) :   1.4067
B( 34-C , 38-H ) :   0.9396 B( 35-C , 37-H ) :   0.9603 B( 42-P , 43-O ) :   1.7432
B( 42-P , 44-O ) :   1.1153 B( 42-P , 45-O ) :   1.1152 B( 44-O , 47-C ) :   0.8277
B( 45-O , 46-C ) :   0.8340 B( 46-C , 48-C ) :   1.0206 B( 46-C , 49-H ) :   0.9573
B( 46-C , 50-H ) :   0.9571 B( 47-C , 51-H ) :   0.9547 B( 47-C , 52-C ) :   1.0166
B( 47-C , 53-H ) :   0.9579 B( 48-C , 54-H ) :   0.9719 B( 48-C , 55-H ) :   0.9602
B( 48-C , 56-H ) :   0.9707 B( 52-C , 57-H ) :   0.9699 B( 52-C , 58-H ) :   0.9701
B( 52-C , 59-H ) :   0.9602

FINAL SINGLE POINT ENERGY     -1758.924133207799

DIPOLE MOMENT
-------------
                                X             Y             Z
Electronic contribution:     24.20999      -0.03892       6.27774
Nuclear contribution   :    -24.56903      -2.26184      -6.14708
                        -----------------------------------------
Total Dipole Moment    :     -0.35904      -2.30076       0.13066
                        -----------------------------------------
Magnitude (a.u.)       :      2.33227
Magnitude (Debye)      :      5.92816

Rotational constants in cm-1:     0.007928     0.001848     0.001685
Rotational constants in MHz :   237.685736    55.389780    50.516963

                             ****ORCA TERMINATED NORMALLY****
TOTAL RUN TIME: 2 days 2 hours 50 minutes 32 seconds 459 msec
