                         Program Version 6.0.1  -  RELEASE   -
|  1> ! CAM-B3LYP VERYTIGHTOPT Def2-TZVP(-f) TightSCF CPCM(Water)
|  2> %tddft
|  3>     NRoots 3
|  4>     IRoot 1
|  5> end
|  6>
|  7> * xyz 1 1
|  8>   C          -4.78986328346326      0.28386270329483      0.47222989332789
|  9>   C          -5.37819185787362     -0.56573934484806      1.38796735698578
| 10>   C          -4.58214196414587     -1.14063311628925      2.36240935739827
| 11>   C          -3.43015992199052      0.60877653487136      0.55344612937824
| 12>   C          -2.63047021355923      0.17595949616564      1.63062390450217
| 13>   O          -2.96458211568902      1.34094629349426     -0.48036074239669
| 14>   C          -3.21643602662175     -0.80925561717772      2.47860753054076
| 15>   C          -2.41893461014539     -1.46449426417305      3.42796031837986
| 16>   C          -1.07057598937220     -1.20099743695280      3.51052417565479
| 17>   C          -1.31484058647100      0.59817117023981      1.90295389713305
| 18>   C          -0.47690583871621     -0.18421270209751      2.73574353711530
| 19>   N          -0.77668015664350      1.78605689559031      1.37165059993380
| 20>   C           0.61232521603336      1.83998778550734      1.21436538773208
| 21>   C           1.43770764392566      0.99244831761827      1.87647429195907
| 22>   C           0.90609252466288      0.03500308901832      2.74693577085709
| 23>   C          -1.89631126959551      0.88407063811438     -1.25316474108897
| 24>   O          -1.32966942895032     -0.15265699833358     -0.99797478565755
| 25>   N          -1.64129117672614      1.72017772189777     -2.25696705459018
| 26>   C          -2.45328901182775      2.87407657806822     -2.61009375452647
| 27>   C          -0.60259556575659      1.36499868631121     -3.21001801205289
| 28>   H          -1.04788135515347      1.00470097772752     -4.13930200394956
| 29>   H           0.03177947293891      0.59211995915422     -2.79156358416202
| 30>   H          -0.00548928711786      2.24965546695152     -3.42615424320354
| 31>   H          -1.79459952725926      3.72030710271530     -2.79948838672472
| 32>   H          -3.13303450548067      3.13094311113374     -1.80905806814784
| 33>   H          -3.02093025514973      2.66127543737821     -3.51772129948500
| 34>   H          -4.99694011722014     -1.85716713724904      3.05851244394109
| 35>   H          -5.35080236018166      0.68948728375332     -0.35849183926217
| 36>   H          -6.42713006650561     -0.81122678634776      1.31339377179043
| 37>   H          -2.86597234078017     -2.21825738291765      4.06196817712571
| 38>   H          -0.44649386938168     -1.76760253023126      4.18870893091182
| 39>   H           0.97498571963253      2.62974668677530      0.57400435330902
| 40>   H           2.50456877040632      1.09151169414915      1.73874720133307
| 41>   H           1.53986404074907     -0.56781505666680      3.38000458887604
| 42>   P          -1.56437461105913      3.30076594980709      1.56140776887573
| 43>   O          -2.97177970748687      3.14152901742824      1.92689927611438
| 44>   O          -1.18622400518436      3.94787679148636      0.19291493137607
| 45>   O          -0.69737368076878      4.12435449809155      2.58199319387071
| 46>   C          -1.30030560275996      5.37958863567972     -0.06241178727833
| 47>   C          -1.04202695493746      4.26806145844542      3.98948310814796
| 48>   C          -0.07853063965079      5.82799104979909     -0.81598130917795
| 49>   H          -1.39946099469219      5.90443175381759      0.88575439109676
| 50>   H          -2.21027081074549      5.51633720952075     -0.64232853788095
| 51>   H           0.82027728456780      5.68585379906667     -0.21668327101141
| 52>   H          -0.17321985938610      6.88803668537220     -1.05311139388792
| 53>   H           0.02571954602654      5.27398339693675     -1.74862069856460
| 54>   C          -0.16227651218406      3.39353114192846      4.84263064554289
| 55>   H          -2.09642978995984      4.03160735113944      4.11384447889364
| 56>   H          -0.88971401284500      5.32241883689481      4.20738533744901
| 57>   H           0.88977037530636      3.63030963982768      4.68666399924454
| 58>   H          -0.32332093235608      2.33821701484018      4.62354475138643
| 59>   H          -0.40187978988721      3.56594052932834      5.89259200776293
| 60> *
| 61>
| 62>
| 63>                          ****END OF INPUT****
 Total Charge           Charge          ....    1
 Multiplicity           Mult            ....    1
 Number of Electrons    NEL             ....  212
FINAL SINGLE POINT ENERGY     -1603.281501806314
FINAL SINGLE POINT ENERGY     -1603.281502722237
FINAL SINGLE POINT ENERGY     -1603.281500739465
FINAL SINGLE POINT ENERGY     -1603.281503575110
FINAL SINGLE POINT ENERGY     -1603.281502284252
FINAL SINGLE POINT ENERGY     -1603.281503396642
FINAL SINGLE POINT ENERGY     -1603.281503122455
FINAL SINGLE POINT ENERGY     -1603.281505362107
FINAL SINGLE POINT ENERGY     -1603.281503653604
FINAL SINGLE POINT ENERGY     -1603.281504439308
FINAL SINGLE POINT ENERGY     -1603.281506389872
FINAL SINGLE POINT ENERGY     -1603.281504148898
FINAL SINGLE POINT ENERGY     -1603.281504404400
FINAL SINGLE POINT ENERGY     -1603.281506030854
FINAL SINGLE POINT ENERGY     -1603.281505281115
FINAL SINGLE POINT ENERGY     -1603.281504518052
FINAL SINGLE POINT ENERGY     -1603.281503262019
FINAL SINGLE POINT ENERGY     -1603.281504328837
FINAL SINGLE POINT ENERGY     -1603.281504776008
                    ***********************HURRAY********************

CARTESIAN COORDINATES (ANGSTROEM)
---------------------------------
  C     -4.788085    0.284648    0.475421
  C     -5.375592   -0.565309    1.391416
  C     -4.578588   -1.140637    2.364770
  C     -3.428361    0.609544    0.555504
  C     -2.627608    0.176366    1.631678
  O     -2.963636    1.342039   -0.478510
  C     -3.212712   -0.809389    2.479702
  C     -2.414195   -1.465445    3.427576
  C     -1.065673   -1.202121    3.508755
  C     -1.311601    0.598325    1.902791
  C     -0.472829   -0.184754    2.734096
  N     -0.773856    1.786423    1.371611
  C      0.615055    1.840686    1.213474
  C      1.441031    0.992763    1.874335
  C      0.910179    0.034457    2.744293
  C     -1.897238    0.884222   -1.253232
  O     -1.330720   -0.152761   -0.998706
  N     -1.643586    1.719796   -2.257820
  C     -2.455081    2.874489   -2.609460
  C     -0.606924    1.363751   -3.212747
  H     -1.054312    1.005167   -4.141679
  H      0.026728    0.589348   -2.796021
  H     -0.008553    2.247539   -3.428996
  H     -1.796042    3.720545   -2.798505
  H     -3.134272    3.131004   -1.807854
  H     -3.023316    2.662728   -3.516955
  H     -4.992725   -1.857493    3.060938
  H     -5.349854    0.690530   -0.354613
  H     -6.424614   -0.810716    1.317755
  H     -2.860528   -2.219663    4.061536
  H     -0.440879   -1.769292    4.185814
  H      0.977141    2.630982    0.573468
  H      2.507792    1.092055    1.735967
  H      1.544529   -0.568983    3.376185
  P     -1.561568    3.301128    1.561495
  O     -2.968686    3.142230    1.928159
  O     -1.184407    3.947624    0.192328
  O     -0.693788    4.124797    2.581393
  C     -1.297515    5.379457   -0.062888
  C     -1.041810    4.275891    3.987248
  C     -0.075259    5.827474   -0.815868
  H     -1.396948    5.904223    0.885295
  H     -2.207227    5.516624   -0.643114
  H      0.823260    5.684663   -0.216286
  H     -0.169277    6.887671   -1.052582
  H      0.029090    5.273859   -1.748729
  C     -0.181787    3.387234    4.845971
  H     -2.100810    4.058395    4.106987
  H     -0.871759    5.327703    4.204271
  H      0.875086    3.603867    4.693481
  H     -0.361755    2.334489    4.629172
  H     -0.422228    3.566889    5.894531

 Multiplicity           Mult            ....    1
 Number of Electrons    NEL             ....  212
 Basis Dimension        Dim             ....  822

ORBITAL ENERGIES
----------------

  NO   OCC          E(Eh)            E(eV)
   0   2.0000     -77.290606     -2103.1843
   1   2.0000     -19.262713      -524.1651
   2   2.0000     -19.253385      -523.9112
   3   2.0000     -19.252989      -523.9005
   4   2.0000     -19.187459      -522.1173
   5   2.0000     -19.187446      -522.1170
   6   2.0000     -14.500691      -394.5839
   7   2.0000     -14.435382      -392.8067
   8   2.0000     -10.411967      -283.3240
   9   2.0000     -10.358421      -281.8670
  10   2.0000     -10.350022      -281.6384
  11   2.0000     -10.341620      -281.4098
  12   2.0000     -10.321487      -280.8619
  13   2.0000     -10.314542      -280.6730
  14   2.0000     -10.311603      -280.5930
  15   2.0000     -10.303907      -280.3836
  16   2.0000     -10.293896      -280.1111
  17   2.0000     -10.291723      -280.0520
  18   2.0000     -10.289793      -279.9995
  19   2.0000     -10.276310      -279.6326
  20   2.0000     -10.273885      -279.5666
  21   2.0000     -10.273103      -279.5453
  22   2.0000     -10.272660      -279.5333
  23   2.0000     -10.271122      -279.4914
  24   2.0000     -10.265007      -279.3250
  25   2.0000     -10.264535      -279.3122
  26   2.0000     -10.238931      -278.6155
  27   2.0000     -10.238436      -278.6020
  28   2.0000      -6.759276      -183.9293
  29   2.0000      -4.922858      -133.9578
  30   2.0000      -4.922112      -133.9375
  31   2.0000      -4.920549      -133.8949
  32   2.0000      -1.219985       -33.1975
  33   2.0000      -1.201093       -32.6834
  34   2.0000      -1.141424       -31.0597
  35   2.0000      -1.127809       -30.6892
  36   2.0000      -1.110255       -30.2116
  37   2.0000      -1.077805       -29.3286
  38   2.0000      -1.045088       -28.4383
  39   2.0000      -0.995215       -27.0812
  40   2.0000      -0.958403       -26.0795
  41   2.0000      -0.928823       -25.2745
  42   2.0000      -0.894444       -24.3390
  43   2.0000      -0.871246       -23.7078
  44   2.0000      -0.862572       -23.4718
  45   2.0000      -0.853727       -23.2311
  46   2.0000      -0.845134       -22.9973
  47   2.0000      -0.808636       -22.0041
  48   2.0000      -0.802030       -21.8244
  49   2.0000      -0.786518       -21.4023
  50   2.0000      -0.762819       -20.7574
  51   2.0000      -0.751646       -20.4533
  52   2.0000      -0.734139       -19.9769
  53   2.0000      -0.721153       -19.6236
  54   2.0000      -0.717954       -19.5365
  55   2.0000      -0.683573       -18.6010
  56   2.0000      -0.672506       -18.2998
  57   2.0000      -0.648558       -17.6482
  58   2.0000      -0.636630       -17.3236
  59   2.0000      -0.623492       -16.9661
  60   2.0000      -0.620537       -16.8857
  61   2.0000      -0.617941       -16.8150
  62   2.0000      -0.613802       -16.7024
  63   2.0000      -0.586821       -15.9682
  64   2.0000      -0.585123       -15.9220
  65   2.0000      -0.583401       -15.8751
  66   2.0000      -0.573501       -15.6058
  67   2.0000      -0.565799       -15.3962
  68   2.0000      -0.557486       -15.1700
  69   2.0000      -0.551337       -15.0027
  70   2.0000      -0.542156       -14.7528
  71   2.0000      -0.538358       -14.6495
  72   2.0000      -0.533779       -14.5249
  73   2.0000      -0.526156       -14.3174
  74   2.0000      -0.521855       -14.2004
  75   2.0000      -0.518441       -14.1075
  76   2.0000      -0.511632       -13.9222
  77   2.0000      -0.503851       -13.7105
  78   2.0000      -0.497260       -13.5311
  79   2.0000      -0.490137       -13.3373
  80   2.0000      -0.482879       -13.1398
  81   2.0000      -0.480716       -13.0809
  82   2.0000      -0.476750       -12.9730
  83   2.0000      -0.473402       -12.8819
  84   2.0000      -0.471703       -12.8357
  85   2.0000      -0.469171       -12.7668
  86   2.0000      -0.463605       -12.6153
  87   2.0000      -0.456455       -12.4208
  88   2.0000      -0.451518       -12.2864
  89   2.0000      -0.449240       -12.2244
  90   2.0000      -0.447206       -12.1691
  91   2.0000      -0.442002       -12.0275
  92   2.0000      -0.434287       -11.8175
  93   2.0000      -0.425080       -11.5670
  94   2.0000      -0.416715       -11.3394
  95   2.0000      -0.413108       -11.2412
  96   2.0000      -0.407245       -11.0817
  97   2.0000      -0.404416       -11.0047
  98   2.0000      -0.396947       -10.8015
  99   2.0000      -0.391927       -10.6649
 100   2.0000      -0.384030       -10.4500
 101   2.0000      -0.369239       -10.0475
 102   2.0000      -0.355906        -9.6847
 103   2.0000      -0.324893        -8.8408
 104   2.0000      -0.322374        -8.7722
 105   2.0000      -0.285612        -7.7719
 106   0.0000      -0.097917        -2.6645
 107   0.0000      -0.039602        -1.0776
 108   0.0000       0.004978         0.1355
 109   0.0000       0.034204         0.9307
 110   0.0000       0.060744         1.6529

----------------------------------------------------------------------------------------------------
                     ABSORPTION SPECTRUM VIA TRANSITION ELECTRIC DIPOLE MOMENTS
----------------------------------------------------------------------------------------------------
     Transition      Energy     Energy  Wavelength fosc(D2)      D2        DX        DY        DZ
                      (eV)      (cm-1)    (nm)                 (au**2)    (au)      (au)      (au)
----------------------------------------------------------------------------------------------------
  0-1A  ->  1-1A    2.749278   22174.4   451.0   0.203949988   3.02794  -1.56963   0.07648  -0.74722
  0-1A  ->  2-1A    3.470097   27988.2   357.3   0.204004066   2.39960  -1.21864  -0.94587   0.14087
  0-1A  ->  3-1A    4.025613   32468.8   308.0   0.030559736   0.30986   0.38508   0.18226  -0.35827

MULLIKEN ATOMIC CHARGES
-----------------------
   0 C :   -0.144590
   1 C :   -0.110120
   2 C :   -0.097670
   3 C :    0.337686
   4 C :    0.133525
   5 O :   -0.488069
   6 C :    0.123680
   7 C :   -0.128033
   8 C :   -0.177316
   9 C :    0.069500
  10 C :    0.256776
  11 N :   -0.346614
  12 C :   -0.036426
  13 C :   -0.066611
  14 C :   -0.240481
  15 C :    0.726421
  16 O :   -0.584995
  17 N :   -0.228058
  18 C :   -0.307635
  19 C :   -0.280103
  20 H :    0.156838
  21 H :    0.159301
  22 H :    0.156209
  23 H :    0.162809
  24 H :    0.168716
  25 H :    0.165326
  26 H :    0.164624
  27 H :    0.163989
  28 H :    0.150767
  29 H :    0.157028
  30 H :    0.155105
  31 H :    0.192880
  32 H :    0.143981
  33 H :    0.150376
  34 P :    1.658134
  35 O :   -0.816669
  36 O :   -0.553667
  37 O :   -0.547224
  38 C :   -0.025651
  39 C :   -0.028123
  40 C :   -0.398791
  41 H :    0.148690
  42 H :    0.150637
  43 H :    0.138631
  44 H :    0.151664
  45 H :    0.142829
  46 C :   -0.388379
  47 H :    0.137890
  48 H :    0.144848
  49 H :    0.134605
  50 H :    0.140523
  51 H :    0.151235
Sum of atomic charges:    1.0000000

LOEWDIN ATOMIC CHARGES
----------------------
   0 C :   -0.019841
   1 C :   -0.097675
   2 C :    0.008924
   3 C :   -0.085392
   4 C :   -0.043522
   5 O :    0.215617
   6 C :   -0.075592
   7 C :   -0.013070
   8 C :   -0.006596
   9 C :   -0.039025
  10 C :   -0.095111
  11 N :    0.014781
  12 C :   -0.115002
  13 C :   -0.134228
  14 C :   -0.071619
  15 C :   -0.343583
  16 O :   -0.048631
  17 N :    0.094367
  18 C :   -0.220148
  19 C :   -0.212585
  20 H :    0.118842
  21 H :    0.123362
  22 H :    0.120784
  23 H :    0.120089
  24 H :    0.122112
  25 H :    0.118758
  26 H :    0.164826
  27 H :    0.164757
  28 H :    0.156949
  29 H :    0.164755
  30 H :    0.163954
  31 H :    0.151311
  32 H :    0.156721
  33 H :    0.154074
  34 P :    0.745742
  35 O :   -0.436760
  36 O :   -0.095204
  37 O :   -0.105988
  38 C :   -0.237368
  39 C :   -0.238743
  40 C :   -0.282128
  41 H :    0.123974
  42 H :    0.125344
  43 H :    0.117873
  44 H :    0.127019
  45 H :    0.117012
  46 C :   -0.283192
  47 H :    0.120609
  48 H :    0.126057
  49 H :    0.118206
  50 H :    0.117451
  51 H :    0.126735

  Mayer bond orders larger than 0.100000
B(  0-C ,  1-C ) :   1.3476 B(  0-C ,  3-C ) :   1.3396 B(  0-C , 27-H ) :   0.9740
B(  1-C ,  2-C ) :   1.3089 B(  1-C , 28-H ) :   0.9876 B(  2-C ,  6-C ) :   1.2225
B(  2-C , 26-H ) :   0.9660 B(  3-C ,  4-C ) :   1.2083 B(  3-C ,  5-O ) :   0.8713
B(  4-C ,  6-C ) :   1.2863 B(  4-C ,  9-C ) :   1.2227 B(  4-C , 11-N ) :   0.1121
B(  5-O , 15-C ) :   0.9251 B(  6-C ,  7-C ) :   1.2586 B(  7-C ,  8-C ) :   1.3287
B(  7-C , 29-H ) :   0.9756 B(  8-C , 10-C ) :   1.2005 B(  8-C , 30-H ) :   0.9826
B(  9-C , 10-C ) :   1.2554 B(  9-C , 11-N ) :   0.9848 B( 10-C , 14-C ) :   1.2994
B( 11-N , 12-C ) :   1.0952 B( 11-N , 34-P ) :   0.8021 B( 12-C , 13-C ) :   1.5742
B( 12-C , 31-H ) :   0.9457 B( 13-C , 14-C ) :   1.2277 B( 13-C , 32-H ) :   0.9743
B( 14-C , 33-H ) :   0.9705 B( 15-C , 16-O ) :   1.8509 B( 15-C , 17-N ) :   1.3763
B( 17-N , 18-C ) :   0.9257 B( 17-N , 19-C ) :   0.9286 B( 18-C , 23-H ) :   0.9626
B( 18-C , 24-H ) :   0.9608 B( 18-C , 25-H ) :   0.9557 B( 19-C , 20-H ) :   0.9626
B( 19-C , 21-H ) :   0.9635 B( 19-C , 22-H ) :   0.9608 B( 34-P , 35-O ) :   1.7253
B( 34-P , 36-O ) :   1.0528 B( 34-P , 37-O ) :   1.0246 B( 36-O , 38-C ) :   0.8392
B( 37-O , 39-C ) :   0.8693 B( 38-C , 40-C ) :   0.9932 B( 38-C , 41-H ) :   0.9533
B( 38-C , 42-H ) :   0.9681 B( 39-C , 46-C ) :   0.9877 B( 39-C , 47-H ) :   0.9691
B( 39-C , 48-H ) :   0.9620 B( 40-C , 43-H ) :   0.9728 B( 40-C , 44-H ) :   0.9675
B( 40-C , 45-H ) :   0.9739 B( 46-C , 49-H ) :   0.9725 B( 46-C , 50-H ) :   0.9686
B( 46-C , 51-H ) :   0.9662

FINAL SINGLE POINT ENERGY     -1603.281505315080

DIPOLE MOMENT
-------------

Method             : TDA/CIS
Type of density    : Electron Density
Level              : Relaxed density
State              :   1
Multiplicity       :   1
Irrep              :   0
Energy             :     0.0000000000000000 Eh
Relativity type    :
Basis              : AO
                                X                 Y                 Z
Electronic contribution:     -9.213687347     -15.722430075       6.393997900
Nuclear contribution   :      9.060893164      15.347417685      -5.759558181
                        -----------------------------------------
Total Dipole Moment    :     -0.152794183      -0.375012390       0.634439719
                        -----------------------------------------
Magnitude (a.u.)       :      0.752658032
Magnitude (Debye)      :      1.913104680

Rotational constants in cm-1:             0.007229             0.006222             0.004738
Rotational constants in MHz :           216.716114           186.534357           142.028047

                             ****ORCA TERMINATED NORMALLY****
TOTAL RUN TIME: 1 days 1 hours 8 minutes 54 seconds 932 msec
