                         Program Version 5.0.4 -  RELEASE  -
|  1> ! B3LYP/G OPT Def2-TZVP(-f) Def2-TZVP/C Def2/J RIJCOSX TightSCF CPCM(Water) AllPop SOSCF
|  2> %maxcore 3000
|  3>
|  4> %scf
|  5> 	MaxIter 125
|  6> 	CNVDIIS 1
|  7> 	CNVSOSCF 1
|  8> end
|  9>
| 10> %tddft
| 11>     NRoots 1
| 12>     IRoot 1
| 13> end
| 14>
| 15> * xyz 1 1
| 16>
| 17>   C   -6.42875536518090     -1.42538530577979      0.23531391923856
| 18>   C   -6.51020708173099     -2.93295434893579      0.11530198757181
| 19>   C   -5.44051677661122     -3.56808046160425      0.99130956999687
| 20>   H   -6.37161249753711     -3.22819996577248     -0.92730354846814
| 21>   H   -7.50608364108595     -3.25214333025517      0.42130036170985
| 22>   C   -4.08882632952667     -3.01845118567456      0.64429407750189
| 23>   H   -5.43059191035100     -4.65342699406728      0.89661399650077
| 24>   H   -5.65270251117045     -3.34016895051581      2.04233144833671
| 25>   C   -3.96674359254634     -1.65509005850156      0.16976888686221
| 26>   N   -5.06829810731111     -0.90977565695133      0.00233771031546
| 27>   H   -6.73646621441652     -1.09198873093231      1.23184254395672
| 28>   H   -7.07406367605259     -0.93421057722737     -0.49049429512879
| 29>   C   -4.99068077528763      0.52146433245072     -0.33563847772060
| 30>   C   -3.80972936414614      0.81677142113044     -1.23808617927717
| 31>   H   -4.91551060147254      1.07800873130847      0.60381729901749
| 32>   H   -5.93185081266812      0.78831712743541     -0.80883183764178
| 33>   C   -2.52648773802080      0.32503875522283     -0.58471715629520
| 34>   H   -3.76208056431330      1.89087732425014     -1.41427851336595
| 35>   H   -3.95792058169331      0.32750569083356     -2.20323435131789
| 36>   C   -2.67502701197867     -1.09080731835548     -0.10570367149741
| 37>   H   -2.28112036088318      0.96022257414458      0.27404354201406
| 38>   H   -1.68541028744563      0.39446074196447     -1.27247449150791
| 39>   C   -2.95696012300127     -3.76449611116743      0.79219041679467
| 40>   C   -1.57845567845848     -1.89783482624865      0.08482702913918
| 41>   C   -1.67863933531489     -3.23540762011351      0.51925021088281
| 42>   O   -0.35124921856876     -1.35537417234607     -0.17162142425573
| 43>   C   0.82354290830387     -2.06727642693005     -0.06375590347474
| 44>   C   -0.48664439316882     -3.99425198260117      0.65652004600055
| 45>   C   0.72845772614263     -3.45975997812734      0.37333281494548
| 46>   O   1.84505555457527     -1.48531134336466     -0.34332050551389
| 47>   C   1.98194370558940     -4.25364322874213      0.48272719644293
| 48>   C   2.90231345847164     -4.00919420587472      1.52418088379086
| 49>   C   2.19428000555041     -5.24477641205298     -0.42722063326907
| 50>   N   3.34199745042668     -6.05983225995088     -0.35585652904231
| 51>   C   4.25754716242084     -5.82980296425537      0.68737747990743
| 52>   C   4.04386572896483     -4.84262181058744      1.59103767973658
| 53>   H   1.51521225241843     -5.44973649567297     -1.23800388102997
| 54>   H   4.77393930936164     -4.70765701400624      2.37699878727399
| 55>   H   5.11062222317344     -6.48556365452548      0.70286499251775
| 56>   H   2.73511815042820     -3.22830908815413      2.24767984296877
| 57>   H   -3.02899728859384     -4.78814887657105      1.13658746422148
| 58>   H   -0.56246516726039     -5.02294692399127      0.98608652385388
| 59>   P   3.60896629058646     -7.25771316246651     -1.52709098597510
| 60>   O   4.85982962952775     -7.97822005113877     -1.23215850425517
| 61>   O   3.48656728699596     -6.54719273701541     -2.93331354510149
| 62>   O   2.27580747192578     -8.10302425657292     -1.60447740687857
| 63>   C   1.94562479689374     -9.04473792215683     -0.53188135891785
| 64>   C   4.49028480503156     -5.56456561365211     -3.35394400026601
| 65>   C   0.67193775222732     -9.75848970910148     -0.91466140459996
| 66>   H   1.82459920934154     -8.48031939102863      0.39361401633473
| 67>   H   2.77743426390409     -9.73938068806426     -0.41920387562481
| 68>   H   4.05344818441518     -4.58168381806788     -3.18085617480821
| 69>   C   4.80839381845465     -5.78829061729668     -4.81320325448292
| 70>   H   5.38266690980080     -5.66886712979825     -2.73655869301476
| 71>   H   -0.15087896599498     -9.05260017959032     -1.03378082862677
| 72>   H   0.40844144094962    -10.46494396654173     -0.12555498558001
| 73>   H   0.80121292285679    -10.31310618945485     -1.84485035915677
| 74>   H   3.91009790399633     -5.70181415828769     -5.42601921704605
| 75>   H   5.25024474301748     -6.77303126450421     -4.96872250614060
| 76>   H   5.52331290603921     -5.03224756414525     -5.14330222855187
| 77> *
| 78>
| 79>
| 80>                          ****END OF INPUT****
 Total Charge           Charge          ....    1
 Multiplicity           Mult            ....    1
 Number of Electrons    NEL             ....  240
FINAL SINGLE POINT ENERGY     -1758.858352600315
FINAL SINGLE POINT ENERGY     -1758.858417507919
FINAL SINGLE POINT ENERGY     -1758.858609690076
FINAL SINGLE POINT ENERGY     -1758.858733209763
FINAL SINGLE POINT ENERGY     -1758.858844341801
FINAL SINGLE POINT ENERGY     -1758.859004861519
FINAL SINGLE POINT ENERGY     -1758.859043870065
FINAL SINGLE POINT ENERGY     -1758.859049761332
FINAL SINGLE POINT ENERGY     -1758.859054507881
FINAL SINGLE POINT ENERGY     -1758.859054881780
                    ***********************HURRAY********************

CARTESIAN COORDINATES (ANGSTROEM)
---------------------------------
  C     -6.380013   -1.426401    0.189653
  C     -6.484039   -2.928508    0.024195
  C     -5.417364   -3.604481    0.872441
  H     -6.358062   -3.192444   -1.028333
  H     -7.481679   -3.243356    0.328881
  C     -4.059642   -3.048599    0.556426
  H     -5.411726   -4.684489    0.727088
  H     -5.630865   -3.426536    1.932681
  C     -3.924863   -1.681648    0.094864
  N     -5.019744   -0.925901   -0.072507
  H     -6.648740   -1.123972    1.207279
  H     -7.043778   -0.903993   -0.496082
  C     -4.930496    0.503060   -0.414514
  C     -3.740512    0.790485   -1.307073
  H     -4.862211    1.062514    0.524016
  H     -5.865399    0.774693   -0.897437
  C     -2.465026    0.290105   -0.645138
  H     -3.685208    1.864218   -1.483132
  H     -3.884102    0.302165   -2.273418
  C     -2.627054   -1.124954   -0.168529
  H     -2.218540    0.923997    0.214135
  H     -1.619880    0.352339   -1.328809
  C     -2.931743   -3.797912    0.720230
  C     -1.536656   -1.936866    0.035476
  C     -1.647507   -3.273384    0.469437
  O     -0.303901   -1.400112   -0.207085
  C      0.866843   -2.114799   -0.078707
  C     -0.460549   -4.037143    0.624711
  C      0.760641   -3.508820    0.358643
  O      1.894459   -1.535774   -0.339413
  C      2.012127   -4.301987    0.490425
  C      2.907096   -4.056426    1.554567
  C      2.250168   -5.288860   -0.417366
  N      3.400973   -6.097652   -0.323202
  C      4.294312   -5.863713    0.740556
  C      4.053271   -4.881530    1.642736
  H      1.588899   -5.496269   -1.242085
  H      4.766635   -4.740897    2.442984
  H      5.153711   -6.510445    0.771410
  H      2.716998   -3.279053    2.276024
  H     -3.013303   -4.823344    1.057342
  H     -0.545027   -5.064933    0.955220
  P      3.674162   -7.326577   -1.459492
  O      4.930156   -8.030007   -1.151063
  O      3.539610   -6.648651   -2.880730
  O      2.347402   -8.183344   -1.514395
  C      1.999802   -9.067990   -0.399035
  C      4.581735   -5.734632   -3.356633
  C      0.711493   -9.772489   -0.747874
  H      1.891988   -8.459097    0.499441
  H      2.817812   -9.773620   -0.257106
  H      4.677286   -4.919230   -2.638530
  C      4.170231   -5.226125   -4.716783
  H      5.521168   -6.284889   -3.399803
  H     -0.097719   -9.056472   -0.895996
  H      0.436816  -10.438402    0.072096
  H      0.827120  -10.369908   -1.653004
  H      3.225656   -4.683718   -4.661716
  H      4.066832   -6.048421   -5.425784
  H      4.937736   -4.544993   -5.088749

 Multiplicity           Mult            ....    1
 Number of Electrons    NEL             ....  240
 Basis Dimension        Dim             ....  942

ORBITAL ENERGIES
----------------

  NO   OCC          E(Eh)            E(eV)
   0   2.0000     -77.219980     -2101.2625
   1   2.0000     -19.200676      -522.4769
   2   2.0000     -19.186329      -522.0865
   3   2.0000     -19.186313      -522.0861
   4   2.0000     -19.123025      -520.3640
   5   2.0000     -19.119626      -520.2715
   6   2.0000     -14.449982      -393.2040
   7   2.0000     -14.349080      -390.4583
   8   2.0000     -10.315458      -280.6979
   9   2.0000     -10.283075      -279.8167
  10   2.0000     -10.281965      -279.7865
  11   2.0000     -10.252463      -278.9837
  12   2.0000     -10.249326      -278.8984
  13   2.0000     -10.244102      -278.7562
  14   2.0000     -10.244055      -278.7549
  15   2.0000     -10.243750      -278.7466
  16   2.0000     -10.233658      -278.4720
  17   2.0000     -10.230380      -278.3828
  18   2.0000     -10.210068      -277.8301
  19   2.0000     -10.205302      -277.7004
  20   2.0000     -10.204691      -277.6838
  21   2.0000     -10.203617      -277.6545
  22   2.0000     -10.186715      -277.1946
  23   2.0000     -10.183370      -277.1036
  24   2.0000     -10.183210      -277.0992
  25   2.0000     -10.181140      -277.0429
  26   2.0000     -10.174758      -276.8692
  27   2.0000     -10.173154      -276.8256
  28   2.0000     -10.171383      -276.7774
  29   2.0000     -10.171341      -276.7763
  30   2.0000     -10.169672      -276.7308
  31   2.0000     -10.169638      -276.7299
  32   2.0000      -6.688170      -181.9943
  33   2.0000      -4.851249      -132.0092
  34   2.0000      -4.850116      -131.9784
  35   2.0000      -4.848618      -131.9376
  36   2.0000      -1.129824       -30.7441
  37   2.0000      -1.118668       -30.4405
  38   2.0000      -1.061840       -28.8941
  39   2.0000      -1.044518       -28.4228
  40   2.0000      -1.032961       -28.1083
  41   2.0000      -1.000136       -27.2151
  42   2.0000      -0.974074       -26.5059
  43   2.0000      -0.887193       -24.1417
  44   2.0000      -0.868392       -23.6301
  45   2.0000      -0.847159       -23.0524
  46   2.0000      -0.832208       -22.6455
  47   2.0000      -0.817168       -22.2363
  48   2.0000      -0.793087       -21.5810
  49   2.0000      -0.782133       -21.2829
  50   2.0000      -0.770512       -20.9667
  51   2.0000      -0.769441       -20.9376
  52   2.0000      -0.762766       -20.7559
  53   2.0000      -0.720769       -19.6131
  54   2.0000      -0.704800       -19.1786
  55   2.0000      -0.694817       -18.9069
  56   2.0000      -0.675792       -18.3892
  57   2.0000      -0.669119       -18.2077
  58   2.0000      -0.659034       -17.9332
  59   2.0000      -0.640634       -17.4325
  60   2.0000      -0.634847       -17.2751
  61   2.0000      -0.631321       -17.1791
  62   2.0000      -0.630490       -17.1565
  63   2.0000      -0.605308       -16.4713
  64   2.0000      -0.578186       -15.7332
  65   2.0000      -0.566745       -15.4219
  66   2.0000      -0.555028       -15.1031
  67   2.0000      -0.548287       -14.9197
  68   2.0000      -0.546599       -14.8737
  69   2.0000      -0.542693       -14.7674
  70   2.0000      -0.532682       -14.4950
  71   2.0000      -0.523122       -14.2349
  72   2.0000      -0.505191       -13.7470
  73   2.0000      -0.500504       -13.6194
  74   2.0000      -0.498669       -13.5695
  75   2.0000      -0.492942       -13.4136
  76   2.0000      -0.485882       -13.2215
  77   2.0000      -0.480449       -13.0737
  78   2.0000      -0.475878       -12.9493
  79   2.0000      -0.472344       -12.8531
  80   2.0000      -0.470525       -12.8036
  81   2.0000      -0.467061       -12.7094
  82   2.0000      -0.459916       -12.5150
  83   2.0000      -0.449663       -12.2360
  84   2.0000      -0.446269       -12.1436
  85   2.0000      -0.440864       -11.9965
  86   2.0000      -0.438417       -11.9299
  87   2.0000      -0.436763       -11.8849
  88   2.0000      -0.433233       -11.7889
  89   2.0000      -0.429079       -11.6758
  90   2.0000      -0.423171       -11.5151
  91   2.0000      -0.414299       -11.2737
  92   2.0000      -0.411556       -11.1990
  93   2.0000      -0.406789       -11.0693
  94   2.0000      -0.400182       -10.8895
  95   2.0000      -0.399108       -10.8603
  96   2.0000      -0.395861       -10.7719
  97   2.0000      -0.394526       -10.7356
  98   2.0000      -0.393009       -10.6943
  99   2.0000      -0.383180       -10.4268
 100   2.0000      -0.375061       -10.2059
 101   2.0000      -0.372541       -10.1374
 102   2.0000      -0.370199       -10.0736
 103   2.0000      -0.363399        -9.8886
 104   2.0000      -0.357543        -9.7292
 105   2.0000      -0.353345        -9.6150
 106   2.0000      -0.350693        -9.5428
 107   2.0000      -0.346953        -9.4411
 108   2.0000      -0.344332        -9.3698
 109   2.0000      -0.341707        -9.2983
 110   2.0000      -0.340667        -9.2700
 111   2.0000      -0.334478        -9.1016
 112   2.0000      -0.327152        -8.9023
 113   2.0000      -0.323371        -8.7994
 114   2.0000      -0.321781        -8.7561
 115   2.0000      -0.320335        -8.7168
 116   2.0000      -0.298990        -8.1359
 117   2.0000      -0.277921        -7.5626
 118   2.0000      -0.243895        -6.6367
 119   2.0000      -0.194943        -5.3047
 120   0.0000      -0.128716        -3.5025
 121   0.0000      -0.068424        -1.8619
 122   0.0000      -0.061373        -1.6700
 123   0.0000      -0.013238        -0.3602
 124   0.0000      -0.002021        -0.0550

MULLIKEN ATOMIC CHARGES
-----------------------
   0 C :   -0.119398
   1 C :   -0.163542
   2 C :   -0.232012
   3 H :    0.105680
   4 H :    0.117862
   5 C :    0.244289
   6 H :    0.127263
   7 H :    0.111381
   8 C :   -0.001937
   9 N :   -0.132711
  10 H :    0.112820
  11 H :    0.132971
  12 C :   -0.123016
  13 C :   -0.150624
  14 H :    0.112999
  15 H :    0.136409
  16 C :   -0.277024
  17 H :    0.117771
  18 H :    0.105716
  19 C :    0.104354
  20 H :    0.113857
  21 H :    0.128051
  22 C :   -0.541136
  23 C :    0.081214
  24 C :    0.466959
  25 O :   -0.382356
  26 C :    0.439323
  27 C :   -0.335713
  28 C :    0.117312
  29 O :   -0.557921
  30 C :    0.304691
  31 C :   -0.157597
  32 C :   -0.117005
  33 N :   -0.202681
  34 C :    0.020882
  35 C :    0.016396
  36 H :    0.185900
  37 H :    0.158463
  38 H :    0.187090
  39 H :    0.172529
  40 H :    0.090217
  41 H :    0.139090
  42 P :    1.556524
  43 O :   -0.777277
  44 O :   -0.519752
  45 O :   -0.519313
  46 C :   -0.020217
  47 C :   -0.020025
  48 C :   -0.352455
  49 H :    0.142568
  50 H :    0.136993
  51 H :    0.142480
  52 C :   -0.353168
  53 H :    0.137299
  54 H :    0.130136
  55 H :    0.135630
  56 H :    0.128865
  57 H :    0.129977
  58 H :    0.129029
  59 H :    0.135896
Sum of atomic charges:    1.0000000

LOEWDIN ATOMIC CHARGES
----------------------
   0 C :   -0.181168
   1 C :   -0.217273
   2 C :   -0.187213
   3 H :    0.130723
   4 H :    0.132778
   5 C :   -0.109653
   6 H :    0.136682
   7 H :    0.138914
   8 C :   -0.065890
   9 N :    0.133842
  10 H :    0.127074
  11 H :    0.130510
  12 C :   -0.178284
  13 C :   -0.216200
  14 H :    0.127703
  15 H :    0.130848
  16 C :   -0.188163
  17 H :    0.132722
  18 H :    0.131057
  19 C :   -0.092373
  20 H :    0.139159
  21 H :    0.136067
  22 C :   -0.069184
  23 C :   -0.095850
  24 C :   -0.127650
  25 O :    0.224380
  26 C :   -0.256441
  27 C :   -0.015018
  28 C :   -0.108300
  29 O :   -0.061635
  30 C :   -0.077552
  31 C :    0.052818
  32 C :    0.009278
  33 N :    0.055221
  34 C :   -0.025911
  35 C :   -0.073677
  36 H :    0.167860
  37 H :    0.167075
  38 H :    0.162015
  39 H :    0.167130
  40 H :    0.149601
  41 H :    0.159595
  42 P :    0.754014
  43 O :   -0.437732
  44 O :   -0.106049
  45 O :   -0.105886
  46 C :   -0.231465
  47 C :   -0.231623
  48 C :   -0.273947
  49 H :    0.122924
  50 H :    0.122487
  51 H :    0.122848
  52 C :   -0.273911
  53 H :    0.122715
  54 H :    0.116732
  55 H :    0.126180
  56 H :    0.117033
  57 H :    0.116769
  58 H :    0.117061
  59 H :    0.126229

  Mayer bond orders larger than 0.100000
B(  0-C ,  1-C ) :   1.0090 B(  0-C ,  9-N ) :   0.9321 B(  0-C , 10-H ) :   0.9512
B(  0-C , 11-H ) :   0.9505 B(  1-C ,  2-C ) :   1.0165 B(  1-C ,  3-H ) :   0.9685
B(  1-C ,  4-H ) :   0.9592 B(  2-C ,  5-C ) :   0.9947 B(  2-C ,  6-H ) :   0.9559
B(  2-C ,  7-H ) :   0.9466 B(  5-C ,  8-C ) :   1.2249 B(  5-C , 22-C ) :   1.4010
B(  8-C ,  9-N ) :   1.4014 B(  8-C , 19-C ) :   1.2271 B(  9-N , 12-C ) :   0.9340
B( 12-C , 13-C ) :   0.9994 B( 12-C , 14-H ) :   0.9518 B( 12-C , 15-H ) :   0.9530
B( 13-C , 16-C ) :   1.0333 B( 13-C , 17-H ) :   0.9619 B( 13-C , 18-H ) :   0.9669
B( 16-C , 19-C ) :   1.0358 B( 16-C , 20-H ) :   0.9556 B( 16-C , 21-H ) :   0.9469
B( 19-C , 23-C ) :   1.3583 B( 22-C , 24-C ) :   1.0967 B( 22-C , 40-H ) :   1.0536
B( 23-C , 24-C ) :   1.3384 B( 23-C , 25-O ) :   1.0174 B( 24-C , 27-C ) :   1.1158
B( 25-O , 26-C ) :   1.0936 B( 26-C , 28-C ) :   1.1093 B( 26-C , 29-O ) :   1.9567
B( 27-C , 28-C ) :   1.4811 B( 27-C , 41-H ) :   0.9850 B( 28-C , 30-C ) :   0.9090
B( 30-C , 31-C ) :   1.3514 B( 30-C , 32-C ) :   1.4635 B( 31-C , 33-N ) :   0.1015
B( 31-C , 34-C ) :   0.1033 B( 31-C , 35-C ) :   1.3510 B( 31-C , 39-H ) :   0.9577
B( 32-C , 33-N ) :   1.2662 B( 32-C , 36-H ) :   0.9401 B( 33-N , 34-C ) :   1.2708
B( 33-N , 42-P ) :   0.7703 B( 34-C , 35-C ) :   1.4680 B( 34-C , 38-H ) :   0.9390
B( 35-C , 37-H ) :   0.9544 B( 42-P , 43-O ) :   1.7740 B( 42-P , 44-O ) :   1.0852
B( 42-P , 45-O ) :   1.0845 B( 44-O , 47-C ) :   0.8463 B( 45-O , 46-C ) :   0.8474
B( 46-C , 48-C ) :   1.0183 B( 46-C , 49-H ) :   0.9570 B( 46-C , 50-H ) :   0.9586
B( 47-C , 51-H ) :   0.9570 B( 47-C , 52-C ) :   1.0185 B( 47-C , 53-H ) :   0.9585
B( 48-C , 54-H ) :   0.9728 B( 48-C , 55-H ) :   0.9618 B( 48-C , 56-H ) :   0.9712
B( 52-C , 57-H ) :   0.9728 B( 52-C , 58-H ) :   0.9711 B( 52-C , 59-H ) :   0.9619

-----------------------------------------------------------------------------
         ABSORPTION SPECTRUM VIA TRANSITION ELECTRIC DIPOLE MOMENTS
-----------------------------------------------------------------------------
State   Energy    Wavelength  fosc         T2        TX        TY        TZ
        (cm-1)      (nm)                 (au**2)    (au)      (au)      (au)
-----------------------------------------------------------------------------
   1   10625.7    941.1   0.010194000   0.31584   0.53212  -0.15120   0.09911

FINAL SINGLE POINT ENERGY     -1758.859057236544

DIPOLE MOMENT
-------------
                                X             Y             Z
Electronic contribution:     16.06749       1.47845       6.86722
Nuclear contribution   :    -26.38399       2.40883      -5.32551
                        -----------------------------------------
Total Dipole Moment    :    -10.31651       3.88728       1.54171
                        -----------------------------------------
Magnitude (a.u.)       :     11.13185
Magnitude (Debye)      :     28.29492

Rotational constants in cm-1:     0.008008     0.001877     0.001739
Rotational constants in MHz :   240.065783    56.273558    52.121615

                             ****ORCA TERMINATED NORMALLY****
TOTAL RUN TIME: 0 days 14 hours 31 minutes 57 seconds 615 msec
