                         Program Version 5.0.4 -  RELEASE  -
|  1> ! B3LYP/G FREQ Def2-TZVP(-f) Def2-TZVP/C Def2/J RIJCOSX TightSCF CPCM(Water) AllPop SOSCF
|  2>
|  3> * xyz 0 1
|  4>   C   -3.29427742206977     -0.64644673085454     -0.61830236256619
|  5>   C   -2.79193783387700     -1.50249156800673     -1.60322792775029
|  6>   C   -1.43844741589871     -1.54295748570471     -1.83596893493297
|  7>   C   -2.44969206905909      0.15850848959996      0.11391956764737
|  8>   C   -1.04607727993728      0.15369735491148     -0.08995443163697
|  9>   O   -3.05525269796050      0.89173977299862      1.12959822010116
| 10>   C   -0.55477066364860     -0.73383628884240     -1.09494226085955
| 11>   C   0.85066792963646     -0.81848025448833     -1.35762898897175
| 12>   C   1.74401779923739     -0.07425581331070     -0.66737944471889
| 13>   C   -0.08241957285496      0.96443894314803      0.64180782419541
| 14>   C   1.30221875961813      0.83188058829893      0.34390661999475
| 15>   N   -0.50882215483953      1.83341350947850      1.58611497959203
| 16>   C   0.37819738949340      2.55939671190755      2.24324732821966
| 17>   C   1.76019638572666      2.49029902726503      2.02389061707692
| 18>   C   2.21723932916533      1.61947413145264      1.06525520416058
| 19>   C   -3.31427517051416      2.21787061229053      0.89751096115064
| 20>   O   -3.11988103641509      2.74303800996144     -0.18822723553327
| 21>   N   -3.81843227930513      2.82579231825617      1.98870596281696
| 22>   C   -4.10556772801243      2.13772237657102      3.24266622696836
| 23>   C   -4.30227119923351      4.19610361307538      1.88500291297919
| 24>   H   -3.98874170086744      4.62290173107799      0.93846166745227
| 25>   H   -3.89263782966633      4.78961938799755      2.70400595438292
| 26>   H   -5.39382275814618      4.22350650742727      1.94830989785070
| 27>   H   -3.48220878815922      1.25726619784040      3.34737346058787
| 28>   H   -5.15750648016043      1.84205279906163      3.29595013045477
| 29>   H   -3.89638476178200      2.81849315185918      4.06829296562207
| 30>   H   -1.02766113168993     -2.20187664831027     -2.59059448930793
| 31>   H   -4.35518479399456     -0.60407587746015     -0.40998670468854
| 32>   H   -3.46975409960987     -2.12665192730886     -2.17083923618162
| 33>   H   1.18140391106415     -1.50342445895894     -2.12860190829612
| 34>   H   2.80578802419604     -0.14726035945888     -0.86955320666875
| 35>   H   -0.01665804974943      3.24215862326288      2.98920828240005
| 36>   H   2.43579950381512      3.11184457478342      2.59606312027014
| 37>   H   3.27530588549879      1.52837898017867      0.85029522818887
| 38> *
| 39>
| 40>
| 41>                          ****END OF INPUT****

CARTESIAN COORDINATES (ANGSTROEM)
---------------------------------
  C     -3.294277   -0.646447   -0.618302
  C     -2.791938   -1.502492   -1.603228
  C     -1.438447   -1.542957   -1.835969
  C     -2.449692    0.158508    0.113920
  C     -1.046077    0.153697   -0.089954
  O     -3.055253    0.891740    1.129598
  C     -0.554771   -0.733836   -1.094942
  C      0.850668   -0.818480   -1.357629
  C      1.744018   -0.074256   -0.667379
  C     -0.082420    0.964439    0.641808
  C      1.302219    0.831881    0.343907
  N     -0.508822    1.833414    1.586115
  C      0.378197    2.559397    2.243247
  C      1.760196    2.490299    2.023891
  C      2.217239    1.619474    1.065255
  C     -3.314275    2.217871    0.897511
  O     -3.119881    2.743038   -0.188227
  N     -3.818432    2.825792    1.988706
  C     -4.105568    2.137722    3.242666
  C     -4.302271    4.196104    1.885003
  H     -3.988742    4.622902    0.938462
  H     -3.892638    4.789619    2.704006
  H     -5.393823    4.223507    1.948310
  H     -3.482209    1.257266    3.347373
  H     -5.157506    1.842053    3.295950
  H     -3.896385    2.818493    4.068293
  H     -1.027661   -2.201877   -2.590594
  H     -4.355185   -0.604076   -0.409987
  H     -3.469754   -2.126652   -2.170839
  H      1.181404   -1.503424   -2.128602
  H      2.805788   -0.147260   -0.869553
  H     -0.016658    3.242159    2.989208
  H      2.435800    3.111845    2.596063
  H      3.275306    1.528379    0.850295

 Total Charge           Charge          ....    0
 Multiplicity           Mult            ....    1
 Number of Electrons    NEL             ....  140
 Basis Dimension        Dim             ....  564

ORBITAL ENERGIES
----------------

  NO   OCC          E(Eh)            E(eV)
   0   2.0000     -19.175270      -521.7856
   1   2.0000     -19.101345      -519.7740
   2   2.0000     -14.352792      -390.5593
   3   2.0000     -14.318770      -389.6335
   4   2.0000     -10.322170      -280.8805
   5   2.0000     -10.248213      -278.8680
   6   2.0000     -10.226618      -278.2804
   7   2.0000     -10.212380      -277.8930
   8   2.0000     -10.202649      -277.6282
   9   2.0000     -10.198706      -277.5209
  10   2.0000     -10.198029      -277.5025
  11   2.0000     -10.197028      -277.4752
  12   2.0000     -10.196731      -277.4672
  13   2.0000     -10.193873      -277.3894
  14   2.0000     -10.184055      -277.1222
  15   2.0000     -10.184041      -277.1218
  16   2.0000     -10.183942      -277.1191
  17   2.0000     -10.183282      -277.1012
  18   2.0000     -10.181963      -277.0653
  19   2.0000     -10.180967      -277.0382
  20   2.0000      -1.117018       -30.3956
  21   2.0000      -1.023825       -27.8597
  22   2.0000      -0.956405       -26.0251
  23   2.0000      -0.947738       -25.7893
  24   2.0000      -0.882365       -24.0104
  25   2.0000      -0.840252       -22.8644
  26   2.0000      -0.808735       -22.0068
  27   2.0000      -0.784642       -21.3512
  28   2.0000      -0.752915       -20.4878
  29   2.0000      -0.745726       -20.2922
  30   2.0000      -0.722257       -19.6536
  31   2.0000      -0.707659       -19.2564
  32   2.0000      -0.657091       -17.8804
  33   2.0000      -0.649660       -17.6781
  34   2.0000      -0.632758       -17.2182
  35   2.0000      -0.620620       -16.8879
  36   2.0000      -0.575544       -15.6614
  37   2.0000      -0.548330       -14.9208
  38   2.0000      -0.537777       -14.6337
  39   2.0000      -0.532134       -14.4801
  40   2.0000      -0.517712       -14.0877
  41   2.0000      -0.497674       -13.5424
  42   2.0000      -0.493954       -13.4412
  43   2.0000      -0.484692       -13.1891
  44   2.0000      -0.480505       -13.0752
  45   2.0000      -0.467698       -12.7267
  46   2.0000      -0.446118       -12.1395
  47   2.0000      -0.445835       -12.1318
  48   2.0000      -0.437839       -11.9142
  49   2.0000      -0.430841       -11.7238
  50   2.0000      -0.420783       -11.4501
  51   2.0000      -0.415388       -11.3033
  52   2.0000      -0.408566       -11.1177
  53   2.0000      -0.407056       -11.0766
  54   2.0000      -0.406346       -11.0572
  55   2.0000      -0.402062       -10.9407
  56   2.0000      -0.386873       -10.5274
  57   2.0000      -0.385488       -10.4897
  58   2.0000      -0.378078       -10.2880
  59   2.0000      -0.364432        -9.9167
  60   2.0000      -0.357057        -9.7160
  61   2.0000      -0.338260        -9.2045
  62   2.0000      -0.320284        -8.7154
  63   2.0000      -0.307882        -8.3779
  64   2.0000      -0.291394        -7.9292
  65   2.0000      -0.283124        -7.7042
  66   2.0000      -0.263576        -7.1723
  67   2.0000      -0.251988        -6.8569
  68   2.0000      -0.250442        -6.8149
  69   2.0000      -0.230651        -6.2763
  70   0.0000      -0.063806        -1.7363
  71   0.0000      -0.055690        -1.5154
  72   0.0000      -0.018444        -0.5019
  73   0.0000       0.008467         0.2304
  74   0.0000       0.031917         0.8685

MULLIKEN ATOMIC CHARGES
-----------------------
   0 C :   -0.157664
   1 C :   -0.112993
   2 C :   -0.186594
   3 C :    0.130570
   4 C :    0.171806
   5 O :   -0.471944
   6 C :    0.235527
   7 C :   -0.243950
   8 C :   -0.259429
   9 C :    0.148273
  10 C :    0.342782
  11 N :   -0.519153
  12 C :    0.064869
  13 C :   -0.044490
  14 C :   -0.208568
  15 C :    0.748355
  16 O :   -0.641814
  17 N :   -0.233346
  18 C :   -0.264962
  19 C :   -0.248263
  20 H :    0.144077
  21 H :    0.138111
  22 H :    0.133107
  23 H :    0.149759
  24 H :    0.135959
  25 H :    0.138593
  26 H :    0.111044
  27 H :    0.112680
  28 H :    0.112457
  29 H :    0.108111
  30 H :    0.104653
  31 H :    0.117573
  32 H :    0.121775
  33 H :    0.123090
Sum of atomic charges:    0.0000000

LOEWDIN ATOMIC CHARGES
----------------------
   0 C :   -0.099142
   1 C :   -0.120924
   2 C :   -0.096008
   3 C :   -0.121551
   4 C :   -0.027679
   5 O :    0.177401
   6 C :   -0.080890
   7 C :   -0.089889
   8 C :   -0.093313
   9 C :   -0.089104
  10 C :   -0.089863
  11 N :    0.067037
  12 C :   -0.157584
  13 C :   -0.128538
  14 C :   -0.064395
  15 C :   -0.357770
  16 O :   -0.102191
  17 N :    0.074480
  18 C :   -0.223892
  19 C :   -0.220047
  20 H :    0.117999
  21 H :    0.113684
  22 H :    0.111850
  23 H :    0.116612
  24 H :    0.110906
  25 H :    0.115704
  26 H :    0.145646
  27 H :    0.147259
  28 H :    0.143567
  29 H :    0.147263
  30 H :    0.146664
  31 H :    0.133250
  32 H :    0.144201
  33 H :    0.149258

  Mayer bond orders larger than 0.100000
B(  0-C ,  1-C ) :   1.2610 B(  0-C ,  3-C ) :   1.4933 B(  0-C , 27-H ) :   1.0019
B(  1-C ,  2-C ) :   1.4080 B(  1-C , 28-H ) :   0.9995 B(  2-C ,  6-C ) :   1.2633
B(  2-C , 26-H ) :   1.0014 B(  3-C ,  4-C ) :   1.2164 B(  3-C ,  5-O ) :   0.9069
B(  4-C ,  6-C ) :   1.3159 B(  4-C ,  9-C ) :   1.0010 B(  5-O , 15-C ) :   0.9988
B(  6-C ,  7-C ) :   1.1180 B(  7-C ,  8-C ) :   1.5203 B(  7-C , 29-H ) :   1.0109
B(  8-C , 10-C ) :   1.1060 B(  8-C , 30-H ) :   1.0200 B(  9-C , 10-C ) :   1.3168
B(  9-C , 11-N ) :   1.3692 B( 10-C , 14-C ) :   1.2824 B( 11-N , 12-C ) :   1.5613
B( 12-C , 13-C ) :   1.3122 B( 12-C , 31-H ) :   0.9756 B( 13-C , 14-C ) :   1.4747
B( 13-C , 32-H ) :   0.9664 B( 14-C , 33-H ) :   0.9711 B( 15-C , 16-O ) :   1.7722
B( 15-C , 17-N ) :   1.3228 B( 17-N , 18-C ) :   0.9476 B( 17-N , 19-C ) :   0.9408
B( 18-C , 23-H ) :   0.9617 B( 18-C , 24-H ) :   0.9612 B( 18-C , 25-H ) :   0.9640
B( 19-C , 20-H ) :   0.9630 B( 19-C , 21-H ) :   0.9641 B( 19-C , 22-H ) :   0.9603

FINAL SINGLE POINT ENERGY      -878.440365685095

DIPOLE MOMENT
-------------
                                X             Y             Z
Electronic contribution:      6.15737      -5.76845      -5.52991
Nuclear contribution   :     -5.43127       5.35999       6.66836
                        -----------------------------------------
Total Dipole Moment    :      0.72610      -0.40846       1.13846
                        -----------------------------------------
Magnitude (a.u.)       :      1.41073
Magnitude (Debye)      :      3.58578

VIBRATIONAL FREQUENCIES
-----------------------

Scaling factor for frequencies =  1.000000000  (already applied!)

   0:         0.00 cm**-1
   1:         0.00 cm**-1
   2:         0.00 cm**-1
   3:         0.00 cm**-1
   4:         0.00 cm**-1
   5:         0.00 cm**-1
   6:        34.36 cm**-1
   7:        37.88 cm**-1
   8:        48.81 cm**-1
   9:        62.12 cm**-1
  10:        92.15 cm**-1
  11:        99.70 cm**-1
  12:       112.82 cm**-1
  13:       127.37 cm**-1
  14:       204.02 cm**-1
  15:       217.04 cm**-1
  16:       228.88 cm**-1
  17:       233.06 cm**-1
  18:       241.18 cm**-1
  19:       297.06 cm**-1
  20:       365.77 cm**-1
  21:       380.11 cm**-1
  22:       410.69 cm**-1
  23:       422.24 cm**-1
  24:       465.92 cm**-1
  25:       491.04 cm**-1
  26:       510.84 cm**-1
  27:       522.44 cm**-1
  28:       525.77 cm**-1
  29:       562.77 cm**-1
  30:       584.64 cm**-1
  31:       606.38 cm**-1
  32:       625.03 cm**-1
  33:       661.05 cm**-1
  34:       703.26 cm**-1
  35:       732.19 cm**-1
  36:       743.34 cm**-1
  37:       746.34 cm**-1
  38:       776.48 cm**-1
  39:       804.48 cm**-1
  40:       828.11 cm**-1
  41:       837.82 cm**-1
  42:       864.32 cm**-1
  43:       871.31 cm**-1
  44:       883.82 cm**-1
  45:       926.87 cm**-1
  46:       970.99 cm**-1
  47:       976.54 cm**-1
  48:       984.08 cm**-1
  49:       991.34 cm**-1
  50:      1004.27 cm**-1
  51:      1032.01 cm**-1
  52:      1046.56 cm**-1
  53:      1075.57 cm**-1
  54:      1083.81 cm**-1
  55:      1109.96 cm**-1
  56:      1125.58 cm**-1
  57:      1148.07 cm**-1
  58:      1161.30 cm**-1
  59:      1172.71 cm**-1
  60:      1178.35 cm**-1
  61:      1187.50 cm**-1
  62:      1218.07 cm**-1
  63:      1224.20 cm**-1
  64:      1255.35 cm**-1
  65:      1271.19 cm**-1
  66:      1277.92 cm**-1
  67:      1322.81 cm**-1
  68:      1341.28 cm**-1
  69:      1354.09 cm**-1
  70:      1409.26 cm**-1
  71:      1414.76 cm**-1
  72:      1437.77 cm**-1
  73:      1452.18 cm**-1
  74:      1456.75 cm**-1
  75:      1462.77 cm**-1
  76:      1476.11 cm**-1
  77:      1479.41 cm**-1
  78:      1486.81 cm**-1
  79:      1491.79 cm**-1
  80:      1522.94 cm**-1
  81:      1532.06 cm**-1
  82:      1545.29 cm**-1
  83:      1598.04 cm**-1
  84:      1630.77 cm**-1
  85:      1644.57 cm**-1
  86:      1659.76 cm**-1
  87:      1705.52 cm**-1
  88:      3022.34 cm**-1
  89:      3026.23 cm**-1
  90:      3079.35 cm**-1
  91:      3088.64 cm**-1
  92:      3149.37 cm**-1
  93:      3169.66 cm**-1
  94:      3173.12 cm**-1
  95:      3174.04 cm**-1
  96:      3178.73 cm**-1
  97:      3179.90 cm**-1
  98:      3189.27 cm**-1
  99:      3192.44 cm**-1
 100:      3203.14 cm**-1
 101:      3203.56 cm**-1

IR SPECTRUM
-----------

 Mode   freq       eps      Int      T**2         TX        TY        TZ
       cm**-1   L/(mol*cm) km/mol    a.u.
----------------------------------------------------------------------------
  6:     34.36   0.000381    1.92  0.003456  ( 0.021580 -0.050061  0.022016)
  7:     37.88   0.001235    6.24  0.010171  ( 0.082965  0.015194  0.055290)
  8:     48.81   0.000339    1.71  0.002169  ( 0.029275  0.035599  0.006666)
  9:     62.12   0.000002    0.01  0.000010  (-0.001775 -0.000394  0.002662)
 10:     92.15   0.000416    2.10  0.001410  (-0.031154  0.003406 -0.020677)
 11:     99.70   0.001840    9.30  0.005760  (-0.001102  0.060812 -0.045400)
 12:    112.82   0.000646    3.27  0.001787  (-0.025207  0.033207 -0.007022)
 13:    127.37   0.000638    3.23  0.001564  (-0.034763 -0.016551 -0.009011)
 14:    204.02   0.000117    0.59  0.000180  (-0.011616  0.001696  0.006465)
 15:    217.04   0.000567    2.87  0.000816  (-0.024757 -0.011035 -0.009006)
 16:    228.88   0.000282    1.42  0.000384  (-0.012859  0.000224 -0.014788)
 17:    233.06   0.001306    6.60  0.001749  (-0.002675 -0.028979  0.030040)
 18:    241.18   0.000987    4.99  0.001277  ( 0.004724 -0.016500 -0.031348)
 19:    297.06   0.000102    0.51  0.000107  (-0.001588 -0.005715  0.008459)
 20:    365.77   0.003442   17.39  0.002937  (-0.022226  0.043934  0.022637)
 21:    380.11   0.001113    5.63  0.000914  ( 0.014639 -0.025958 -0.005069)
 22:    410.69   0.000898    4.54  0.000683  ( 0.013615 -0.010604 -0.019618)
 23:    422.24   0.000030    0.15  0.000023  ( 0.001943 -0.004110 -0.001360)
 24:    465.92   0.001871    9.46  0.001253  (-0.013405  0.025247 -0.020887)
 25:    491.04   0.000178    0.90  0.000113  ( 0.004613 -0.004565 -0.008433)
 26:    510.84   0.000044    0.22  0.000027  (-0.003942 -0.001372  0.003124)
 27:    522.44   0.001074    5.43  0.000641  ( 0.000915  0.024974 -0.004090)
 28:    525.77   0.000976    4.93  0.000579  (-0.023606 -0.001702 -0.004350)
 29:    562.77   0.001196    6.05  0.000663  ( 0.013830  0.012825  0.017539)
 30:    584.64   0.000326    1.65  0.000174  (-0.009427  0.000431  0.009205)
 31:    606.38   0.001822    9.21  0.000938  (-0.025115 -0.000149  0.017516)
 32:    625.03   0.002250   11.37  0.001123  (-0.029293 -0.015346  0.005439)
 33:    661.05   0.001268    6.41  0.000599  ( 0.015354  0.005033  0.018371)
 34:    703.26   0.000655    3.31  0.000291  (-0.014676  0.002885  0.008175)
 35:    732.19   0.000674    3.41  0.000287  (-0.008274  0.003613 -0.014348)
 36:    743.34   0.012620   63.78  0.005298  (-0.044003 -0.057888  0.003279)
 37:    746.34   0.017278   87.31  0.007224  ( 0.032967 -0.050080  0.060244)
 38:    776.48   0.004362   22.04  0.001753  ( 0.006657 -0.019547  0.036422)
 39:    804.48   0.000312    1.57  0.000121  ( 0.001433  0.010444 -0.003118)
 40:    828.11   0.002377   12.01  0.000896  ( 0.024332 -0.002467  0.017254)
 41:    837.82   0.005276   26.66  0.001965  (-0.024320  0.001003  0.037049)
 42:    864.32   0.014685   74.21  0.005302  ( 0.011050 -0.055321  0.046039)
 43:    871.31   0.000596    3.01  0.000213  ( 0.010137  0.007967  0.006867)
 44:    883.82   0.007612   38.47  0.002688  ( 0.012448 -0.045226  0.022078)
 45:    926.87   0.000568    2.87  0.000191  (-0.007656  0.009417  0.006632)
 46:    970.99   0.000062    0.32  0.000020  ( 0.000091  0.003026 -0.003304)
 47:    976.54   0.000207    1.04  0.000066  ( 0.001400 -0.005998  0.005298)
 48:    984.08   0.000043    0.22  0.000014  ( 0.000260  0.002056 -0.003074)
 49:    991.34   0.005613   28.36  0.001767  (-0.023092 -0.003741  0.034922)
 50:   1004.27   0.000293    1.48  0.000091  ( 0.000920 -0.007039  0.006382)
 51:   1032.01   0.011306   57.14  0.003419  ( 0.047203 -0.034504 -0.000458)
 52:   1046.56   0.005433   27.46  0.001620  ( 0.013327 -0.037940 -0.001752)
 53:   1075.57   0.003648   18.44  0.001058  (-0.003155  0.029588 -0.013154)
 54:   1083.81   0.001585    8.01  0.000456  ( 0.006323 -0.017411 -0.010642)
 55:   1109.96   0.000616    3.11  0.000173  (-0.013134 -0.000060 -0.000798)
 56:   1125.58   0.000559    2.83  0.000155  ( 0.002875  0.006812 -0.010021)
 57:   1148.07   0.006308   31.88  0.001715  (-0.008014 -0.035488 -0.019776)
 58:   1161.30   0.132301  668.59  0.035552  (-0.089479  0.135379  0.096008)
 59:   1172.71   0.000688    3.48  0.000183  ( 0.010949 -0.007175  0.003419)
 60:   1178.35   0.060849  307.51  0.016115  (-0.064680  0.098080  0.048080)
 61:   1187.50   0.004372   22.10  0.001149  ( 0.017593 -0.028019 -0.007380)
 62:   1218.07   0.006394   32.31  0.001638  ( 0.013781 -0.032523 -0.019761)
 63:   1224.20   0.007496   37.88  0.001911  ( 0.022623 -0.033215 -0.017199)
 64:   1255.35   0.030480  154.03  0.007577  (-0.051376  0.064888  0.026960)
 65:   1271.19   0.002973   15.02  0.000730  (-0.003971  0.026487  0.003529)
 66:   1277.92   0.001795    9.07  0.000438  (-0.013350 -0.002714  0.015900)
 67:   1322.81   0.002169   10.96  0.000512  ( 0.016764 -0.012550 -0.008554)
 68:   1341.28   0.006449   32.59  0.001501  ( 0.022125 -0.024894 -0.019782)
 69:   1354.09   0.002352   11.88  0.000542  (-0.015204  0.013352  0.011514)
 70:   1409.26   0.042666  215.62  0.009448  (-0.022121  0.077293  0.054630)
 71:   1414.76   0.023692  119.73  0.005226  (-0.055908  0.040940  0.020593)
 72:   1437.77   0.002659   13.44  0.000577  (-0.006679 -0.007759  0.021735)
 73:   1452.18   0.005137   25.96  0.001104  ( 0.001119  0.029993  0.014250)
 74:   1456.75   0.005329   26.93  0.001142  (-0.000064  0.028009  0.018896)
 75:   1462.77   0.007254   36.66  0.001547  (-0.009388  0.029575 -0.024180)
 76:   1476.11   0.004190   21.18  0.000886  ( 0.026474 -0.000220 -0.013601)
 77:   1479.41   0.000579    2.93  0.000122  ( 0.006813  0.001568  0.008565)
 78:   1486.81   0.006756   34.14  0.001418  (-0.026750 -0.004953 -0.026037)
 79:   1491.79   0.002653   13.41  0.000555  (-0.000769  0.021782 -0.008944)
 80:   1522.94   0.016951   85.66  0.003473  ( 0.023757 -0.053854 -0.002945)
 81:   1532.06   0.002550   12.89  0.000519  (-0.003650 -0.020271 -0.009760)
 82:   1545.29   0.007363   37.21  0.001487  (-0.023709  0.024664  0.017792)
 83:   1598.04   0.007667   38.75  0.001497  ( 0.037785 -0.004272 -0.007158)
 84:   1630.77   0.011101   56.10  0.002124  (-0.009048 -0.032356 -0.031551)
 85:   1644.57   0.001066    5.39  0.000202  (-0.007320 -0.007336 -0.009740)
 86:   1659.76   0.003692   18.66  0.000694  ( 0.025390  0.007043  0.000040)
 87:   1705.52   0.189140  955.84  0.034607  ( 0.054524  0.017782 -0.176970)
 88:   3022.34   0.007661   38.72  0.000791  ( 0.004356  0.023631 -0.014617)
 89:   3026.23   0.021958  110.97  0.002264  (-0.038461  0.014465  0.023997)
 90:   3079.35   0.009134   46.16  0.000926  ( 0.020034  0.015813  0.016561)
 91:   3088.64   0.004999   25.26  0.000505  (-0.011470 -0.010559 -0.016188)
 92:   3149.37   0.006612   33.41  0.000655  ( 0.003001 -0.017276 -0.018647)
 93:   3169.66   0.000934    4.72  0.000092  ( 0.001502  0.005841 -0.007457)
 94:   3173.12   0.000028    0.14  0.000003  (-0.001412  0.000464  0.000740)
 95:   3174.04   0.001625    8.21  0.000160  ( 0.007895 -0.009838  0.000825)
 96:   3178.73   0.001482    7.49  0.000146  ( 0.011204 -0.002392 -0.003777)
 97:   3179.90   0.000042    0.21  0.000004  (-0.001517 -0.000807 -0.001068)
 98:   3189.27   0.003042   15.37  0.000298  ( 0.014908 -0.005059 -0.007059)
 99:   3192.44   0.004624   23.37  0.000452  (-0.004298  0.014302  0.015131)
100:   3203.14   0.003749   18.95  0.000365  (-0.012399 -0.010660 -0.009893)
101:   3203.56   0.001128    5.70  0.000110  ( 0.008339  0.004956  0.003975)

--------------------------
THERMOCHEMISTRY AT 298.15K
--------------------------

Temperature         ... 298.15 K
Pressure            ... 1.00 atm
Total Mass          ... 266.30 AMU

Throughout the following assumptions are being made:
  (1) The electronic state is orbitally nondegenerate
  (2) There are no thermally accessible electronically excited states
  (3) Hindered rotations indicated by low frequency modes are not
      treated as such but are treated as vibrations and this may
      cause some error
  (4) All equations used are the standard statistical mechanics
      equations for an ideal gas
  (5) All vibrations are strictly harmonic

freq.      34.36  E(vib)   ...       0.54
freq.      37.88  E(vib)   ...       0.54
freq.      48.81  E(vib)   ...       0.53
freq.      62.12  E(vib)   ...       0.51
freq.      92.15  E(vib)   ...       0.47
freq.      99.70  E(vib)   ...       0.46
freq.     112.82  E(vib)   ...       0.45
freq.     127.37  E(vib)   ...       0.43
freq.     204.02  E(vib)   ...       0.35
freq.     217.04  E(vib)   ...       0.34
freq.     228.88  E(vib)   ...       0.32
freq.     233.06  E(vib)   ...       0.32
freq.     241.18  E(vib)   ...       0.31
freq.     297.06  E(vib)   ...       0.27
freq.     365.77  E(vib)   ...       0.22
freq.     380.11  E(vib)   ...       0.21
freq.     410.69  E(vib)   ...       0.19
freq.     422.24  E(vib)   ...       0.18
freq.     465.92  E(vib)   ...       0.16
freq.     491.04  E(vib)   ...       0.14
freq.     510.84  E(vib)   ...       0.14
freq.     522.44  E(vib)   ...       0.13
freq.     525.77  E(vib)   ...       0.13
freq.     562.77  E(vib)   ...       0.11
freq.     584.64  E(vib)   ...       0.11
freq.     606.38  E(vib)   ...       0.10
freq.     625.03  E(vib)   ...       0.09
freq.     661.05  E(vib)   ...       0.08
freq.     703.26  E(vib)   ...       0.07
freq.     732.19  E(vib)   ...       0.06
freq.     743.34  E(vib)   ...       0.06
freq.     746.34  E(vib)   ...       0.06
freq.     776.48  E(vib)   ...       0.05
freq.     804.48  E(vib)   ...       0.05
freq.     828.11  E(vib)   ...       0.04
freq.     837.82  E(vib)   ...       0.04
freq.     864.32  E(vib)   ...       0.04
freq.     871.31  E(vib)   ...       0.04
freq.     883.82  E(vib)   ...       0.04
freq.     926.87  E(vib)   ...       0.03
freq.     970.99  E(vib)   ...       0.03
freq.     976.54  E(vib)   ...       0.03
freq.     984.08  E(vib)   ...       0.02
freq.     991.34  E(vib)   ...       0.02
freq.    1004.27  E(vib)   ...       0.02
freq.    1032.01  E(vib)   ...       0.02
freq.    1046.56  E(vib)   ...       0.02
freq.    1075.57  E(vib)   ...       0.02
freq.    1083.81  E(vib)   ...       0.02
freq.    1109.96  E(vib)   ...       0.02
freq.    1125.58  E(vib)   ...       0.01
freq.    1148.07  E(vib)   ...       0.01
freq.    1161.30  E(vib)   ...       0.01
freq.    1172.71  E(vib)   ...       0.01
freq.    1178.35  E(vib)   ...       0.01
freq.    1187.50  E(vib)   ...       0.01
freq.    1218.07  E(vib)   ...       0.01
freq.    1224.20  E(vib)   ...       0.01
freq.    1255.35  E(vib)   ...       0.01
freq.    1271.19  E(vib)   ...       0.01
freq.    1277.92  E(vib)   ...       0.01
freq.    1322.81  E(vib)   ...       0.01
freq.    1341.28  E(vib)   ...       0.01
freq.    1354.09  E(vib)   ...       0.01
freq.    1409.26  E(vib)   ...       0.00
freq.    1414.76  E(vib)   ...       0.00
freq.    1437.77  E(vib)   ...       0.00
freq.    1452.18  E(vib)   ...       0.00
freq.    1456.75  E(vib)   ...       0.00
freq.    1462.77  E(vib)   ...       0.00
freq.    1476.11  E(vib)   ...       0.00
freq.    1479.41  E(vib)   ...       0.00
freq.    1486.81  E(vib)   ...       0.00
freq.    1491.79  E(vib)   ...       0.00
freq.    1522.94  E(vib)   ...       0.00
freq.    1532.06  E(vib)   ...       0.00
freq.    1545.29  E(vib)   ...       0.00
freq.    1598.04  E(vib)   ...       0.00
freq.    1630.77  E(vib)   ...       0.00
freq.    1644.57  E(vib)   ...       0.00
freq.    1659.76  E(vib)   ...       0.00
freq.    1705.52  E(vib)   ...       0.00
freq.    3022.34  E(vib)   ...       0.00
freq.    3026.23  E(vib)   ...       0.00
freq.    3079.35  E(vib)   ...       0.00
freq.    3088.64  E(vib)   ...       0.00
freq.    3149.37  E(vib)   ...       0.00
freq.    3169.66  E(vib)   ...       0.00
freq.    3173.12  E(vib)   ...       0.00
freq.    3174.04  E(vib)   ...       0.00
freq.    3178.73  E(vib)   ...       0.00
freq.    3179.90  E(vib)   ...       0.00
freq.    3189.27  E(vib)   ...       0.00
freq.    3192.44  E(vib)   ...       0.00
freq.    3203.14  E(vib)   ...       0.00
freq.    3203.56  E(vib)   ...       0.00

------------
INNER ENERGY
------------

The inner energy is: U= E(el) + E(ZPE) + E(vib) + E(rot) + E(trans)
    E(el)   - is the total energy from the electronic structure calculation
              = E(kin-el) + E(nuc-el) + E(el-el) + E(nuc-nuc)
    E(ZPE)  - the the zero temperature vibrational energy from the frequency calculation
    E(vib)  - the the finite temperature correction to E(ZPE) due to population
              of excited vibrational states
    E(rot)  - is the rotational thermal energy
    E(trans)- is the translational thermal energy

Summary of contributions to the inner energy U:
Electronic energy                ...   -878.44036569 Eh
Zero point energy                ...      0.26845796 Eh     168.46 kcal/mol
Thermal vibrational correction   ...      0.01401927 Eh       8.80 kcal/mol
Thermal rotational correction    ...      0.00141627 Eh       0.89 kcal/mol
Thermal translational correction ...      0.00141627 Eh       0.89 kcal/mol
-----------------------------------------------------------------------
Total thermal energy                   -878.15505591 Eh

Summary of corrections to the electronic energy:
(perhaps to be used in another calculation)
Total thermal correction                  0.01685181 Eh      10.57 kcal/mol
Non-thermal (ZPE) correction              0.26845796 Eh     168.46 kcal/mol
-----------------------------------------------------------------------
Total correction                          0.28530977 Eh     179.03 kcal/mol

--------
ENTHALPY
--------

The enthalpy is H = U + kB*T
                kB is Boltzmann's constant
Total free energy                 ...   -878.15505591 Eh
Thermal Enthalpy correction       ...      0.00094421 Eh       0.59 kcal/mol
-----------------------------------------------------------------------
Total Enthalpy                    ...   -878.15411170 Eh

Note: Only C1 symmetry has been detected, increase convergence thresholds
      if your molecule has a higher symmetry. Symmetry factor of 1.0 is
      used for the rotational entropy correction.

Rotational constants in cm-1:     0.016255     0.010868     0.007093

                             ****ORCA TERMINATED NORMALLY****
TOTAL RUN TIME: 0 days 1 hours 41 minutes 35 seconds 400 msec
