                         Program Version 6.0.1  -  RELEASE   -
|  1> ! B3LYP/G VERYTIGHTOPT FREQ Def2-TZVP(-f) Def2-TZVP/C Def2/J RIJCOSX TightSCF CPCM(Water) AllPop SOSCF
|  2>
|  3> * xyz 0 1
|  4>   C          -3.35948158892705     -0.81444608522877     -0.33506793746229
|  5>   C          -2.89851569719394     -1.74141552714154     -1.27998027721631
|  6>   C          -1.56108177527527     -1.76604871187144     -1.60856918851113
|  7>   C          -2.48955845507269      0.07240424099622      0.26788844778801
|  8>   C          -1.10144731004095      0.08566989102249     -0.03876645344656
|  9>   O          -3.04515978394596      0.87971150108871      1.25435693519025
| 10>   C          -0.65125139198694     -0.87183221464472     -1.00256628906920
| 11>   C           0.73817144214643     -0.93760517040887     -1.35779285926328
| 12>   C           1.65378084294859     -0.11152106422619     -0.79439995354395
| 13>   C          -0.11550044679223      0.98070704693417      0.55778175566044
| 14>   C           1.25263520611744      0.86289006593645      0.17428200873787
| 15>   N          -0.50889776385719      1.90738523985773      1.46443574315835
| 16>   C           0.39713144956435      2.70839064495710      2.00303683127725
| 17>   C           1.76628982058414      2.66308449202771      1.69366671185405
| 18>   C           2.18891071820376      1.73292159042856      0.77041998460743
| 19>   C          -3.32082597065624      2.18928715321849      0.93338794894444
| 20>   O          -3.22086385139128      2.61653430713668     -0.20356793887396
| 21>   N          -3.73695413756670      2.88595951566779      2.01339476258630
| 22>   C          -3.87840594766566      2.31879126074967      3.35063272244724
| 23>   C          -4.22198973063247      4.24936137448296      1.83762655552298
| 24>   H          -5.29792309289751      4.30357497445621      2.03386771741187
| 25>   H          -4.02880221775699      4.57407270038374      0.81968688821786
| 26>   H          -3.70891952067628      4.91851156283328      2.53318422308184
| 27>   H          -3.29065665958963      1.41190220290038      3.44301721683508
| 28>   H          -4.92707843062979      2.09141319246891      3.57116737866262
| 29>   H          -3.52240180383059      3.04650316032263      4.08335869020071
| 30>   H          -1.18497024178843     -2.47900019308883     -2.33480164326312
| 31>   H          -4.40611385592532     -0.77914300658434     -0.05470644645420
| 32>   H          -3.59555754359298     -2.43051237495949     -1.74402910615141
| 33>   H           1.04085415880705     -1.67606340790074     -2.09317538356037
| 34>   H           2.70270575909045     -0.17287365200872     -1.06699551072059
| 35>   H           0.02634175350735      3.43481287752689      2.72239109562150
| 36>   H           2.45856329492960      3.34729534242911      2.17068163656332
| 37>   H           3.23512276708455      1.65711706296179      0.49053372748599
| 38> *
| 39>
| 40>                          ****END OF INPUT****
 Total Charge           Charge          ....    0
 Multiplicity           Mult            ....    1
 Number of Electrons    NEL             ....  140
FINAL SINGLE POINT ENERGY      -878.440240670130
FINAL SINGLE POINT ENERGY      -878.440491846612
FINAL SINGLE POINT ENERGY      -878.440500922030
FINAL SINGLE POINT ENERGY      -878.440522624380
FINAL SINGLE POINT ENERGY      -878.440525404854
FINAL SINGLE POINT ENERGY      -878.440526895009
FINAL SINGLE POINT ENERGY      -878.440527349053
FINAL SINGLE POINT ENERGY      -878.440527495617
FINAL SINGLE POINT ENERGY      -878.440527536836
FINAL SINGLE POINT ENERGY      -878.440527554234
FINAL SINGLE POINT ENERGY      -878.440527947481
FINAL SINGLE POINT ENERGY      -878.440527956196
FINAL SINGLE POINT ENERGY      -878.440527930685
FINAL SINGLE POINT ENERGY      -878.440527952999
FINAL SINGLE POINT ENERGY      -878.440527938193
FINAL SINGLE POINT ENERGY      -878.440527947340
FINAL SINGLE POINT ENERGY      -878.440527983599
FINAL SINGLE POINT ENERGY      -878.440528003737
FINAL SINGLE POINT ENERGY      -878.440527970284
                    ***********************HURRAY********************

CARTESIAN COORDINATES (ANGSTROEM)
---------------------------------
  C     -3.346738   -0.786771   -0.324041
  C     -2.896629   -1.711282   -1.271432
  C     -1.563461   -1.744452   -1.601973
  C     -2.470828    0.091697    0.274571
  C     -1.086073    0.096220   -0.032327
  O     -3.017533    0.897191    1.268766
  C     -0.647893   -0.860761   -0.997385
  C      0.736050   -0.939874   -1.357364
  C      1.659167   -0.125879   -0.797207
  C     -0.090921    0.980199    0.560046
  C      1.271067    0.849173    0.171121
  N     -0.467192    1.912445    1.464427
  C      0.448699    2.701669    1.997645
  C      1.812355    2.639293    1.682801
  C      2.218072    1.705904    0.760691
  C     -3.332691    2.191008    0.942432
  O     -3.243087    2.617718   -0.199030
  N     -3.763759    2.885857    2.012337
  C     -3.903233    2.322869    3.350670
  C     -4.283135    4.234588    1.830130
  H     -5.360090    4.257168    2.018335
  H     -4.090392    4.565537    0.815491
  H     -3.794558    4.912943    2.531879
  H     -3.278175    1.444919    3.463653
  H     -4.943613    2.053089    3.554049
  H     -3.593289    3.073727    4.078483
  H     -1.193450   -2.455868   -2.329509
  H     -4.390153   -0.746498   -0.040597
  H     -3.598185   -2.393217   -1.733972
  H      1.026423   -1.679203   -2.093548
  H      2.704721   -0.195577   -1.071809
  H      0.093625    3.433395    2.716697
  H      2.513591    3.314029    2.155117
  H      3.259460    1.616582    0.475232

 Multiplicity           Mult            ....    1
 Number of Electrons    NEL             ....  140
 Basis Dimension        Dim             ....  564

ORBITAL ENERGIES
----------------

  NO   OCC          E(Eh)            E(eV)
   0   2.0000     -19.175311      -521.7868
   1   2.0000     -19.101466      -519.7773
   2   2.0000     -14.353067      -390.5668
   3   2.0000     -14.318958      -389.6387
   4   2.0000     -10.322385      -280.8864
   5   2.0000     -10.248240      -278.8688
   6   2.0000     -10.226788      -278.2851
   7   2.0000     -10.212492      -277.8960
   8   2.0000     -10.202765      -277.6314
   9   2.0000     -10.198764      -277.5225
  10   2.0000     -10.198049      -277.5030
  11   2.0000     -10.197103      -277.4773
  12   2.0000     -10.196727      -277.4670
  13   2.0000     -10.193937      -277.3911
  14   2.0000     -10.184065      -277.1225
  15   2.0000     -10.184057      -277.1223
  16   2.0000     -10.183980      -277.1202
  17   2.0000     -10.183286      -277.1013
  18   2.0000     -10.182007      -277.0665
  19   2.0000     -10.180991      -277.0388
  20   2.0000      -1.117174       -30.3999
  21   2.0000      -1.023856       -27.8605
  22   2.0000      -0.956508       -26.0279
  23   2.0000      -0.947966       -25.7955
  24   2.0000      -0.882424       -24.0120
  25   2.0000      -0.840293       -22.8655
  26   2.0000      -0.808805       -22.0087
  27   2.0000      -0.784661       -21.3517
  28   2.0000      -0.753008       -20.4904
  29   2.0000      -0.745751       -20.2929
  30   2.0000      -0.722328       -19.6555
  31   2.0000      -0.707923       -19.2636
  32   2.0000      -0.657114       -17.8810
  33   2.0000      -0.649732       -17.6801
  34   2.0000      -0.632869       -17.2212
  35   2.0000      -0.620590       -16.8871
  36   2.0000      -0.575622       -15.6635
  37   2.0000      -0.548363       -14.9217
  38   2.0000      -0.537983       -14.6393
  39   2.0000      -0.532136       -14.4802
  40   2.0000      -0.517835       -14.0910
  41   2.0000      -0.497840       -13.5469
  42   2.0000      -0.494012       -13.4428
  43   2.0000      -0.484781       -13.1916
  44   2.0000      -0.480550       -13.0764
  45   2.0000      -0.467840       -12.7306
  46   2.0000      -0.446187       -12.1414
  47   2.0000      -0.445941       -12.1347
  48   2.0000      -0.437927       -11.9166
  49   2.0000      -0.430893       -11.7252
  50   2.0000      -0.420885       -11.4529
  51   2.0000      -0.415546       -11.3076
  52   2.0000      -0.408640       -11.1197
  53   2.0000      -0.407163       -11.0795
  54   2.0000      -0.406447       -11.0600
  55   2.0000      -0.401841       -10.9346
  56   2.0000      -0.387033       -10.5317
  57   2.0000      -0.385543       -10.4912
  58   2.0000      -0.378088       -10.2883
  59   2.0000      -0.364487        -9.9182
  60   2.0000      -0.357070        -9.7164
  61   2.0000      -0.338270        -9.2048
  62   2.0000      -0.320470        -8.7204
  63   2.0000      -0.308022        -8.3817
  64   2.0000      -0.291452        -7.9308
  65   2.0000      -0.283254        -7.7077
  66   2.0000      -0.263691        -7.1754
  67   2.0000      -0.252139        -6.8610
  68   2.0000      -0.250527        -6.8172
  69   2.0000      -0.230736        -6.2787
  70   0.0000      -0.063905        -1.7389
  71   0.0000      -0.055765        -1.5175
  72   0.0000      -0.018546        -0.5047
  73   0.0000       0.008392         0.2284
  74   0.0000       0.032595         0.8870

MULLIKEN ATOMIC CHARGES
-----------------------
   0 C :   -0.157074
   1 C :   -0.113541
   2 C :   -0.186592
   3 C :    0.130287
   4 C :    0.172682
   5 O :   -0.472734
   6 C :    0.235867
   7 C :   -0.244364
   8 C :   -0.259856
   9 C :    0.149289
  10 C :    0.343465
  11 N :   -0.521093
  12 C :    0.065968
  13 C :   -0.044895
  14 C :   -0.208197
  15 C :    0.744880
  16 O :   -0.642007
  17 N :   -0.230185
  18 C :   -0.266036
  19 C :   -0.248126
  20 H :    0.133358
  21 H :    0.144190
  22 H :    0.137655
  23 H :    0.150762
  24 H :    0.136584
  25 H :    0.138187
  26 H :    0.111040
  27 H :    0.112590
  28 H :    0.112396
  29 H :    0.107846
  30 H :    0.104586
  31 H :    0.117936
  32 H :    0.121838
  33 H :    0.123293
Sum of atomic charges:   -0.0000000

LOEWDIN ATOMIC CHARGES
----------------------
   0 C :   -0.099167
   1 C :   -0.120970
   2 C :   -0.095899
   3 C :   -0.121863
   4 C :   -0.027648
   5 O :    0.176622
   6 C :   -0.081012
   7 C :   -0.089847
   8 C :   -0.093148
   9 C :   -0.089122
  10 C :   -0.089788
  11 N :    0.065969
  12 C :   -0.157516
  13 C :   -0.128499
  14 C :   -0.064076
  15 C :   -0.358131
  16 O :   -0.102977
  17 N :    0.075350
  18 C :   -0.223686
  19 C :   -0.219470
  20 H :    0.112130
  21 H :    0.118042
  22 H :    0.113543
  23 H :    0.116850
  24 H :    0.111172
  25 H :    0.115457
  26 H :    0.145725
  27 H :    0.147358
  28 H :    0.143621
  29 H :    0.147290
  30 H :    0.146729
  31 H :    0.133341
  32 H :    0.144257
  33 H :    0.149363

  Mayer bond orders larger than 0.100000
B(  0-C ,  1-C ) :   1.2604 B(  0-C ,  3-C ) :   1.4929 B(  0-C , 27-H ) :   1.0023
B(  1-C ,  2-C ) :   1.4068 B(  1-C , 28-H ) :   1.0004 B(  2-C ,  6-C ) :   1.2618
B(  2-C , 26-H ) :   1.0021 B(  3-C ,  4-C ) :   1.2178 B(  3-C ,  5-O ) :   0.9066
B(  4-C ,  6-C ) :   1.3168 B(  4-C ,  9-C ) :   0.9993 B(  5-O , 15-C ) :   0.9995
B(  6-C ,  7-C ) :   1.1174 B(  7-C ,  8-C ) :   1.5182 B(  7-C , 29-H ) :   1.0121
B(  8-C , 10-C ) :   1.1047 B(  8-C , 30-H ) :   1.0215 B(  9-C , 10-C ) :   1.3171
B(  9-C , 11-N ) :   1.3682 B( 10-C , 14-C ) :   1.2821 B( 11-N , 12-C ) :   1.5601
B( 12-C , 13-C ) :   1.3125 B( 12-C , 31-H ) :   0.9753 B( 13-C , 14-C ) :   1.4745
B( 13-C , 32-H ) :   0.9668 B( 14-C , 33-H ) :   0.9712 B( 15-C , 16-O ) :   1.7725
B( 15-C , 17-N ) :   1.3250 B( 17-N , 18-C ) :   0.9465 B( 17-N , 19-C ) :   0.9405
B( 18-C , 23-H ) :   0.9615 B( 18-C , 24-H ) :   0.9611 B( 18-C , 25-H ) :   0.9639
B( 19-C , 20-H ) :   0.9604 B( 19-C , 21-H ) :   0.9630 B( 19-C , 22-H ) :   0.9639

FINAL SINGLE POINT ENERGY      -878.440527963198

DIPOLE MOMENT
-------------

Method             : SCF
Type of density    : Electron Density
Multiplicity       :   1
Irrep              :   0
Energy             :  -878.4405279631984058 Eh
Relativity type    :
Basis              : AO
                                X                 Y                 Z
Electronic contribution:      5.776132653      -6.166333938      -5.489151307
Nuclear contribution   :     -4.923281271       5.884960559       6.611259842
                        -----------------------------------------
Total Dipole Moment    :      0.852851382      -0.281373379       1.122108535
                        -----------------------------------------
Magnitude (a.u.)       :      1.437238332
Magnitude (Debye)      :      3.653169517

VIBRATIONAL FREQUENCIES
-----------------------

Scaling factor for frequencies =  1.000000000  (already applied!)

     0:       0.00 cm**-1
     1:       0.00 cm**-1
     2:       0.00 cm**-1
     3:       0.00 cm**-1
     4:       0.00 cm**-1
     5:       0.00 cm**-1
     6:      30.04 cm**-1
     7:      32.56 cm**-1
     8:      46.89 cm**-1
     9:      53.57 cm**-1
    10:      79.84 cm**-1
    11:      99.42 cm**-1
    12:     112.11 cm**-1
    13:     127.29 cm**-1
    14:     204.07 cm**-1
    15:     216.60 cm**-1
    16:     229.25 cm**-1
    17:     233.49 cm**-1
    18:     241.46 cm**-1
    19:     297.30 cm**-1
    20:     365.25 cm**-1
    21:     378.64 cm**-1
    22:     410.24 cm**-1
    23:     422.47 cm**-1
    24:     465.54 cm**-1
    25:     491.60 cm**-1
    26:     510.80 cm**-1
    27:     522.87 cm**-1
    28:     525.60 cm**-1
    29:     562.89 cm**-1
    30:     584.93 cm**-1
    31:     606.63 cm**-1
    32:     625.30 cm**-1
    33:     661.01 cm**-1
    34:     703.55 cm**-1
    35:     732.43 cm**-1
    36:     742.65 cm**-1
    37:     746.55 cm**-1
    38:     776.47 cm**-1
    39:     804.28 cm**-1
    40:     828.20 cm**-1
    41:     837.60 cm**-1
    42:     864.31 cm**-1
    43:     871.19 cm**-1
    44:     884.22 cm**-1
    45:     927.21 cm**-1
    46:     971.08 cm**-1
    47:     976.93 cm**-1
    48:     984.11 cm**-1
    49:     991.45 cm**-1
    50:    1004.11 cm**-1
    51:    1031.98 cm**-1
    52:    1046.48 cm**-1
    53:    1075.70 cm**-1
    54:    1083.98 cm**-1
    55:    1109.71 cm**-1
    56:    1126.02 cm**-1
    57:    1148.33 cm**-1
    58:    1161.86 cm**-1
    59:    1172.09 cm**-1
    60:    1177.17 cm**-1
    61:    1186.92 cm**-1
    62:    1218.13 cm**-1
    63:    1223.93 cm**-1
    64:    1254.88 cm**-1
    65:    1271.20 cm**-1
    66:    1277.80 cm**-1
    67:    1322.74 cm**-1
    68:    1340.98 cm**-1
    69:    1354.01 cm**-1
    70:    1410.03 cm**-1
    71:    1415.65 cm**-1
    72:    1436.71 cm**-1
    73:    1452.00 cm**-1
    74:    1456.52 cm**-1
    75:    1462.08 cm**-1
    76:    1476.08 cm**-1
    77:    1478.95 cm**-1
    78:    1485.65 cm**-1
    79:    1491.45 cm**-1
    80:    1522.81 cm**-1
    81:    1531.99 cm**-1
    82:    1545.42 cm**-1
    83:    1598.27 cm**-1
    84:    1630.76 cm**-1
    85:    1644.75 cm**-1
    86:    1659.38 cm**-1
    87:    1704.20 cm**-1
    88:    3023.29 cm**-1
    89:    3027.22 cm**-1
    90:    3077.69 cm**-1
    91:    3085.47 cm**-1
    92:    3149.45 cm**-1
    93:    3169.66 cm**-1
    94:    3173.78 cm**-1
    95:    3176.59 cm**-1
    96:    3179.22 cm**-1
    97:    3180.75 cm**-1
    98:    3189.52 cm**-1
    99:    3192.66 cm**-1
   100:    3203.25 cm**-1
   101:    3203.51 cm**-1

IR SPECTRUM
-----------

 Mode   freq       eps      Int      T**2         TX        TY        TZ
       cm**-1   L/(mol*cm) km/mol    a.u.
----------------------------------------------------------------------------
  6:     30.04   0.001164    5.88  0.012097  (-0.097191 -0.016499 -0.048772)
  7:     32.56   0.000281    1.42  0.002692  (-0.006554  0.049091 -0.015461)
  8:     46.89   0.000162    0.82  0.001076  (-0.000831  0.029517 -0.014288)
  9:     53.57   0.000152    0.77  0.000886  (-0.021468 -0.018548 -0.009027)
 10:     79.84   0.000646    3.26  0.002524  ( 0.046831  0.012568  0.013165)
 11:     99.42   0.001921    9.71  0.006030  ( 0.010023 -0.056255  0.052585)
 12:    112.11   0.000628    3.17  0.001748  ( 0.023320 -0.033529  0.008970)
 13:    127.29   0.000553    2.79  0.001356  ( 0.032355  0.017111  0.003989)
 14:    204.07   0.000122    0.62  0.000186  ( 0.011086 -0.002078 -0.007675)
 15:    216.60   0.000562    2.84  0.000810  ( 0.026281  0.010542  0.002898)
 16:    229.25   0.000382    1.93  0.000520  ( 0.016916 -0.000820  0.015263)
 17:    233.49   0.001284    6.49  0.001716  ( 0.001771  0.027081 -0.031298)
 18:    241.46   0.000873    4.41  0.001128  (-0.002617  0.017922  0.028292)
 19:    297.30   0.000115    0.58  0.000121  ( 0.000476  0.006182 -0.009075)
 20:    365.25   0.003632   18.36  0.003103  ( 0.022088 -0.046538 -0.021202)
 21:    378.64   0.000979    4.95  0.000807  (-0.014190  0.024117  0.004918)
 22:    410.24   0.000819    4.14  0.000623  (-0.011048  0.010182  0.019938)
 23:    422.47   0.000037    0.18  0.000027  (-0.002252  0.004261  0.001935)
 24:    465.54   0.001948    9.84  0.001306  ( 0.016314 -0.023744  0.021816)
 25:    491.60   0.000182    0.92  0.000115  (-0.004110  0.004643  0.008774)
 26:    510.80   0.000046    0.23  0.000028  (-0.003653 -0.001207  0.003628)
 27:    522.87   0.001095    5.53  0.000653  (-0.001852 -0.024921  0.005372)
 28:    525.60   0.000981    4.96  0.000583  ( 0.023940  0.001083  0.002909)
 29:    562.89   0.001197    6.05  0.000663  (-0.014847 -0.014483 -0.015273)
 30:    584.93   0.000320    1.62  0.000171  ( 0.008144 -0.001256 -0.010131)
 31:    606.63   0.001748    8.83  0.000899  (-0.022246  0.001746  0.020034)
 32:    625.30   0.002283   11.54  0.001139  ( 0.028820  0.015629 -0.008016)
 33:    661.01   0.001330    6.72  0.000628  (-0.017514 -0.006951 -0.016515)
 34:    703.55   0.000629    3.18  0.000279  ( 0.013606 -0.003581 -0.008999)
 35:    732.43   0.000664    3.36  0.000283  (-0.009864  0.001554 -0.013534)
 36:    742.65   0.011687   59.06  0.004911  ( 0.046836  0.051889 -0.004989)
 37:    746.55   0.018128   91.61  0.007578  (-0.032116  0.051915 -0.062056)
 38:    776.47   0.004300   21.73  0.001728  (-0.009510  0.016269 -0.037056)
 39:    804.28   0.000344    1.74  0.000134  (-0.001258 -0.010850  0.003777)
 40:    828.20   0.002411   12.19  0.000909  ( 0.025858 -0.000496  0.015484)
 41:    837.60   0.005202   26.29  0.001938  ( 0.021121 -0.004105 -0.038406)
 42:    864.31   0.014854   75.06  0.005363  (-0.015498  0.052059 -0.049119)
 43:    871.19   0.000605    3.06  0.000217  (-0.010647 -0.008466 -0.005623)
 44:    884.22   0.007576   38.29  0.002674  ( 0.014504 -0.043396  0.024087)
 45:    927.21   0.000545    2.76  0.000184  ( 0.006606 -0.009650 -0.006841)
 46:    971.08   0.000064    0.32  0.000020  ( 0.000376 -0.002926  0.003434)
 47:    976.93   0.000196    0.99  0.000063  (-0.001474  0.005106 -0.005859)
 48:    984.11   0.000054    0.27  0.000017  (-0.000550  0.002067 -0.003543)
 49:    991.45   0.005789   29.26  0.001822  ( 0.020035  0.001004 -0.037680)
 50:   1004.11   0.000296    1.49  0.000092  (-0.001235  0.006520 -0.006918)
 51:   1031.98   0.011533   58.28  0.003488  (-0.048511  0.033672  0.000594)
 52:   1046.48   0.005361   27.09  0.001599  (-0.014457  0.037264 -0.001016)
 53:   1075.70   0.003466   17.52  0.001006  ( 0.005320 -0.027928  0.014046)
 54:   1083.98   0.001511    7.63  0.000435  (-0.005716  0.017736  0.009362)
 55:   1109.71   0.000606    3.06  0.000171  ( 0.013053  0.000218 -0.000283)
 56:   1126.02   0.000528    2.67  0.000146  (-0.003589 -0.002705  0.011236)
 57:   1148.33   0.006333   32.00  0.001721  ( 0.008767  0.037297  0.015908)
 58:   1161.86   0.137700  695.88  0.036985  ( 0.086941 -0.145203 -0.091335)
 59:   1172.09   0.000553    2.79  0.000147  (-0.010417  0.003805 -0.004924)
 60:   1177.17   0.056398  285.01  0.014951  ( 0.060867 -0.096535 -0.043897)
 61:   1186.92   0.004232   21.39  0.001113  (-0.016883  0.028089  0.006213)
 62:   1218.13   0.006554   33.12  0.001679  (-0.013574  0.034241  0.017951)
 63:   1223.93   0.007350   37.14  0.001874  (-0.022145  0.033747  0.015644)
 64:   1254.88   0.031154  157.44  0.007747  ( 0.051478 -0.066813 -0.025167)
 65:   1271.20   0.002742   13.86  0.000673  ( 0.003169 -0.025748 -0.000350)
 66:   1277.80   0.001736    8.77  0.000424  ( 0.011670  0.000578 -0.016955)
 67:   1322.74   0.002109   10.66  0.000498  (-0.016161  0.012776  0.008559)
 68:   1340.98   0.006617   33.44  0.001540  (-0.021532  0.026372  0.019511)
 69:   1354.01   0.002140   10.82  0.000493  (-0.013953  0.013279  0.011057)
 70:   1410.03   0.037861  191.33  0.008379  ( 0.013875 -0.077083 -0.047380)
 71:   1415.65   0.027734  140.16  0.006114  ( 0.055892 -0.048529 -0.025191)
 72:   1436.71   0.002785   14.07  0.000605  ( 0.003744  0.007423 -0.023146)
 73:   1452.00   0.004509   22.79  0.000969  (-0.000949 -0.029598 -0.009599)
 74:   1456.52   0.006072   30.68  0.001301  ( 0.000570 -0.031991 -0.016648)
 75:   1462.08   0.006922   34.98  0.001477  ( 0.012866 -0.025160  0.026054)
 76:   1476.08   0.004139   20.92  0.000875  (-0.025701  0.001179  0.014596)
 77:   1478.95   0.000333    1.68  0.000070  (-0.006650 -0.002233 -0.004597)
 78:   1485.65   0.006868   34.71  0.001443  (-0.029554 -0.008152 -0.022422)
 79:   1491.45   0.002678   13.54  0.000560  ( 0.001785 -0.020644  0.011447)
 80:   1522.81   0.017354   87.70  0.003556  (-0.024458  0.054344 -0.002192)
 81:   1531.99   0.002639   13.34  0.000538  ( 0.004002  0.021604  0.007401)
 82:   1545.42   0.007163   36.20  0.001446  ( 0.022870 -0.025378 -0.016713)
 83:   1598.27   0.007844   39.64  0.001532  (-0.037690  0.003835  0.009814)
 84:   1630.76   0.011080   55.99  0.002120  ( 0.010178  0.034940  0.028210)
 85:   1644.75   0.001089    5.51  0.000207  ( 0.007632  0.008395  0.008830)
 86:   1659.38   0.003756   18.98  0.000706  (-0.025414 -0.007379  0.002453)
 87:   1704.20   0.191836  969.46  0.035128  (-0.039481 -0.001028  0.183216)
 88:   3023.29   0.007659   38.70  0.000791  ( 0.003972  0.021030 -0.018234)
 89:   3027.22   0.022186  112.12  0.002287  (-0.035009  0.018311  0.026948)
 90:   3077.69   0.010777   54.46  0.001093  ( 0.023861  0.018297  0.013734)
 91:   3085.47   0.004061   20.52  0.000411  (-0.011812 -0.010851 -0.012388)
 92:   3149.45   0.006853   34.63  0.000679  ( 0.002142 -0.018894 -0.017819)
 93:   3169.66   0.000835    4.22  0.000082  (-0.000584 -0.004754  0.007697)
 94:   3173.78   0.000065    0.33  0.000006  ( 0.002453 -0.000120 -0.000600)
 95:   3176.59   0.001483    7.50  0.000146  (-0.007467  0.009407 -0.001215)
 96:   3179.22   0.001602    8.10  0.000157  (-0.011537  0.002287  0.004348)
 97:   3180.75   0.000065    0.33  0.000006  (-0.001249  0.001250  0.001804)
 98:   3189.52   0.003206   16.20  0.000314  (-0.014558  0.005768  0.008277)
 99:   3192.66   0.004808   24.30  0.000470  (-0.003855  0.015577  0.014574)
100:   3203.25   0.004238   21.42  0.000413  (-0.013608 -0.012390 -0.008611)
101:   3203.51   0.000876    4.43  0.000085  ( 0.007375  0.004892  0.002645)

--------------------------
THERMOCHEMISTRY AT 298.15K
--------------------------

Temperature         ...   298.15 K
Pressure            ...     1.00 atm
Total Mass          ...   266.30 AMU
Quasi RRHO          ...     True
Cut-Off Frequency   ...     1.00 cm^-1

Throughout the following assumptions are being made:
  (1) The electronic state is orbitally nondegenerate
  (2) There are no thermally accessible electronically excited states
  (3) Hindered rotations indicated by low frequency modes are not
      treated as such but are treated as vibrations and this may
      cause some error
  (4) All equations used are the standard statistical mechanics
      equations for an ideal gas
  (5) All vibrations are strictly harmonic

freq.      30.04  E(vib)   ...       0.55
freq.      32.56  E(vib)   ...       0.55
freq.      46.89  E(vib)   ...       0.53
freq.      53.57  E(vib)   ...       0.52
freq.      79.84  E(vib)   ...       0.49
freq.      99.42  E(vib)   ...       0.46
freq.     112.11  E(vib)   ...       0.45
freq.     127.29  E(vib)   ...       0.43
freq.     204.07  E(vib)   ...       0.35
freq.     216.60  E(vib)   ...       0.34
freq.     229.25  E(vib)   ...       0.32
freq.     233.49  E(vib)   ...       0.32
freq.     241.46  E(vib)   ...       0.31
freq.     297.30  E(vib)   ...       0.27
freq.     365.25  E(vib)   ...       0.22
freq.     378.64  E(vib)   ...       0.21
freq.     410.24  E(vib)   ...       0.19
freq.     422.47  E(vib)   ...       0.18
freq.     465.54  E(vib)   ...       0.16
freq.     491.60  E(vib)   ...       0.14
freq.     510.80  E(vib)   ...       0.14
freq.     522.87  E(vib)   ...       0.13
freq.     525.60  E(vib)   ...       0.13
freq.     562.89  E(vib)   ...       0.11
freq.     584.93  E(vib)   ...       0.11
freq.     606.63  E(vib)   ...       0.10
freq.     625.30  E(vib)   ...       0.09
freq.     661.01  E(vib)   ...       0.08
freq.     703.55  E(vib)   ...       0.07
freq.     732.43  E(vib)   ...       0.06
freq.     742.65  E(vib)   ...       0.06
freq.     746.55  E(vib)   ...       0.06
freq.     776.47  E(vib)   ...       0.05
freq.     804.28  E(vib)   ...       0.05
freq.     828.20  E(vib)   ...       0.04
freq.     837.60  E(vib)   ...       0.04
freq.     864.31  E(vib)   ...       0.04
freq.     871.19  E(vib)   ...       0.04
freq.     884.22  E(vib)   ...       0.04
freq.     927.21  E(vib)   ...       0.03
freq.     971.08  E(vib)   ...       0.03
freq.     976.93  E(vib)   ...       0.03
freq.     984.11  E(vib)   ...       0.02
freq.     991.45  E(vib)   ...       0.02
freq.    1004.11  E(vib)   ...       0.02
freq.    1031.98  E(vib)   ...       0.02
freq.    1046.48  E(vib)   ...       0.02
freq.    1075.70  E(vib)   ...       0.02
freq.    1083.98  E(vib)   ...       0.02
freq.    1109.71  E(vib)   ...       0.02
freq.    1126.02  E(vib)   ...       0.01
freq.    1148.33  E(vib)   ...       0.01
freq.    1161.86  E(vib)   ...       0.01
freq.    1172.09  E(vib)   ...       0.01
freq.    1177.17  E(vib)   ...       0.01
freq.    1186.92  E(vib)   ...       0.01
freq.    1218.13  E(vib)   ...       0.01
freq.    1223.93  E(vib)   ...       0.01
freq.    1254.88  E(vib)   ...       0.01
freq.    1271.20  E(vib)   ...       0.01
freq.    1277.80  E(vib)   ...       0.01
freq.    1322.74  E(vib)   ...       0.01
freq.    1340.98  E(vib)   ...       0.01
freq.    1354.01  E(vib)   ...       0.01
freq.    1410.03  E(vib)   ...       0.00
freq.    1415.65  E(vib)   ...       0.00
freq.    1436.71  E(vib)   ...       0.00
freq.    1452.00  E(vib)   ...       0.00
freq.    1456.52  E(vib)   ...       0.00
freq.    1462.08  E(vib)   ...       0.00
freq.    1476.08  E(vib)   ...       0.00
freq.    1478.95  E(vib)   ...       0.00
freq.    1485.65  E(vib)   ...       0.00
freq.    1491.45  E(vib)   ...       0.00
freq.    1522.81  E(vib)   ...       0.00
freq.    1531.99  E(vib)   ...       0.00
freq.    1545.42  E(vib)   ...       0.00
freq.    1598.27  E(vib)   ...       0.00
freq.    1630.76  E(vib)   ...       0.00
freq.    1644.75  E(vib)   ...       0.00
freq.    1659.38  E(vib)   ...       0.00
freq.    1704.20  E(vib)   ...       0.00
freq.    3023.29  E(vib)   ...       0.00
freq.    3027.22  E(vib)   ...       0.00
freq.    3077.69  E(vib)   ...       0.00
freq.    3085.47  E(vib)   ...       0.00
freq.    3149.45  E(vib)   ...       0.00
freq.    3169.66  E(vib)   ...       0.00
freq.    3173.78  E(vib)   ...       0.00
freq.    3176.59  E(vib)   ...       0.00
freq.    3179.22  E(vib)   ...       0.00
freq.    3180.75  E(vib)   ...       0.00
freq.    3189.52  E(vib)   ...       0.00
freq.    3192.66  E(vib)   ...       0.00
freq.    3203.25  E(vib)   ...       0.00
freq.    3203.51  E(vib)   ...       0.00

------------
INNER ENERGY
------------

The inner energy is: U= E(el) + E(ZPE) + E(vib) + E(rot) + E(trans)
    E(el)   - is the total energy from the electronic structure calculation
              = E(kin-el) + E(nuc-el) + E(el-el) + E(nuc-nuc)
    E(ZPE)  - the the zero temperature vibrational energy from the frequency calculation
    E(vib)  - the the finite temperature correction to E(ZPE) due to population
              of excited vibrational states
    E(rot)  - is the rotational thermal energy
    E(trans)- is the translational thermal energy

Summary of contributions to the inner energy U:
Electronic energy                ...   -878.44052796 Eh
Zero point energy                ...      0.26837420 Eh     168.41 kcal/mol
Thermal vibrational correction   ...      0.01408825 Eh       8.84 kcal/mol
Thermal rotational correction    ...      0.00141627 Eh       0.89 kcal/mol
Thermal translational correction ...      0.00141627 Eh       0.89 kcal/mol
-----------------------------------------------------------------------
Total thermal energy                   -878.15523297 Eh

Summary of corrections to the electronic energy:
(perhaps to be used in another calculation)
Total thermal correction                  0.01692079 Eh      10.62 kcal/mol
Non-thermal (ZPE) correction              0.26837420 Eh     168.41 kcal/mol
-----------------------------------------------------------------------
Total correction                          0.28529500 Eh     179.02 kcal/mol

--------
ENTHALPY
--------

The enthalpy is H = U + kB*T
                kB is Boltzmann's constant
Total thermal energy              ...   -878.15523297 Eh
Thermal Enthalpy correction       ...      0.00094421 Eh       0.59 kcal/mol
-----------------------------------------------------------------------
Total Enthalpy                    ...   -878.15428876 Eh

Note: Only C1 symmetry has been detected, increase convergence thresholds
      if your molecule has a higher symmetry. Symmetry factor of 1.0 is

Rotational constants in cm-1:     0.016229     0.010881     0.007096

                             ****ORCA TERMINATED NORMALLY****
TOTAL RUN TIME: 0 days 3 hours 56 minutes 2 seconds 644 msec
