                         Program Version 6.0.1  -  RELEASE   -
|  1> ! B3LYP/G OPT FREQ 6-311G* CPCM(Water)
|  2>
|  3> %tddft
|  4>     NRoots 3
|  5>     IRoot 1
|  6> end
|  7>
|  8> * xyz 0 1
|  9> C  -3.32365374716909123265 -1.11365992868202678956 -0.29579280493737891700
| 10> C  -2.73100605397555717957 -2.04803208649721302237 -1.14192066097935374103
| 11> C  -1.39731054639361640390 -1.94640037175689850635 -1.44465202399028180835
| 12> C  -2.56997069022985957787 -0.10897358942557100470 0.27217364817070549554
| 13> C  -1.18385026394702075336 -0.01369459150276597370 0.03135928380969121854
| 14> O  -3.23151576501365145333 0.77962196368617053821 1.10385307299340795772
| 15> C  -0.60780231915016735833 -0.93416149823513205952 -0.87771888863533209513
| 16> C  0.77094100825023992307 -0.81866148882811917709 -1.22130318539036464287
| 17> C  1.54747578004928887374 0.15890784721389228373 -0.70298254105704260919
| 18> C  -0.33443610725806482975 0.96881449863902591169 0.65397622581930980878
| 19> C  1.02005613814571538533 1.07153865898840350290 0.25183299975767958756
| 20> N  -0.83444221810779872772 1.75480015841730363491 1.61946968802906043905
| 21> C  -0.07265645611633742007 2.67611154763844805160 2.15809700192975650879
| 22> C  1.25626987849212912174 2.89691865606340748229 1.79141633681890244389
| 23> C  1.80701258760537730730 2.07419946950326838930 0.83968346597750309623
| 24> C  -3.14281386458764355751 2.10409984826589102624 0.80321945194364086085
| 25> O  -2.79282218350195154954 2.51675446700074711970 -0.29596640711595123552
| 26> N  -3.60647735529621726869 2.86479640803472435096 1.79689761872072129023
| 27> C  -3.93132305291366712652 2.29169465154733886791 3.08687706558590502226
| 28> C  -3.61144698060591640143 4.30427245089342136453 1.67225927788310380073
| 29> H  -2.91051400839943941179 4.74753841112418228931 2.38073272599095586699
| 30> H  -4.61423606336616209944 4.68738022853357616526 1.86073792598428067180
| 31> H  -3.30758757323073382395 4.56220640005665689642 0.65964840310110450794
| 32> H  -3.04841551410247291187 1.82142023996747304260 3.52233935184176782940
| 33> H  -4.70792474207601419067 1.53527496523847251098 2.97839099361839876323
| 34> H  -4.28507529862943492560 3.08707565925087612513 3.73476590360136029290
| 35> H  -0.93466644080681815510 -2.64181090566567533529 -2.12755461965540737523
| 36> H  -4.37933576912085520405 -1.15237476641601932492 -0.07785697747104547428
| 37> H  -3.33482816550597771510 -2.83064821490685947225 -1.57269036677572549010
| 38> H  1.17466383604368007632 -1.52987969002031021226 -1.92555225416674380412
| 39> H  2.58456507065892449049 0.26144821638791604368 -0.98533307790676449844
| 40> H  -0.54354017163546941571 3.26927379146543906074 2.93036199153904997061
| 41> H  1.82638524778605515486 3.68265057824583053048 2.25950791868594258460
| 42> H  2.83844181143285467783 2.17932801763253669591 0.53610345059824060510
| 43> *
| 44>
| 45>                          ****END OF INPUT****
 Total Charge           Charge          ....    0
 Multiplicity           Mult            ....    1
 Number of Electrons    NEL             ....  140
FINAL SINGLE POINT ENERGY      -878.178801203502
FINAL SINGLE POINT ENERGY      -878.188396953803
FINAL SINGLE POINT ENERGY      -878.189908114973
FINAL SINGLE POINT ENERGY      -878.191563786991
FINAL SINGLE POINT ENERGY      -878.191947322418
FINAL SINGLE POINT ENERGY      -878.192075527306
FINAL SINGLE POINT ENERGY      -878.192112191458
FINAL SINGLE POINT ENERGY      -878.192122625639
FINAL SINGLE POINT ENERGY      -878.192136887832
FINAL SINGLE POINT ENERGY      -878.192164021331
FINAL SINGLE POINT ENERGY      -878.192304630393
FINAL SINGLE POINT ENERGY      -878.192385122226
FINAL SINGLE POINT ENERGY      -878.192454403709
FINAL SINGLE POINT ENERGY      -878.192481609349
FINAL SINGLE POINT ENERGY      -878.192414175616
FINAL SINGLE POINT ENERGY      -878.192501222581
FINAL SINGLE POINT ENERGY      -878.192504137462
FINAL SINGLE POINT ENERGY      -878.192504332507
FINAL SINGLE POINT ENERGY      -878.192502226129
                    ***********************HURRAY********************

CARTESIAN COORDINATES (ANGSTROEM)
---------------------------------
  C     -3.315563   -1.107503   -0.257212
  C     -2.761249   -2.055399   -1.121823
  C     -1.422590   -1.935932   -1.478286
  C     -2.537062   -0.058802    0.260820
  C     -1.131161    0.044128    0.010787
  O     -3.243434    0.812898    1.033438
  C     -0.595850   -0.909489   -0.943363
  C      0.755386   -0.834624   -1.309127
  C      1.594258    0.129188   -0.747090
  C     -0.243261    0.952848    0.679774
  C      1.140009    1.013412    0.253816
  N     -0.706927    1.731273    1.697329
  C      0.140189    2.633444    2.242706
  C      1.464782    2.808378    1.853060
  C      1.991036    1.974674    0.858271
  C     -3.221358    2.184033    0.758312
  O     -2.859814    2.608579   -0.318859
  N     -3.771182    2.884574    1.768675
  C     -4.017392    2.340550    3.101227
  C     -3.856142    4.335889    1.637971
  H     -3.039123    4.824724    2.179027
  H     -4.805213    4.678697    2.053772
  H     -3.802190    4.612221    0.588934
  H     -3.191775    2.584911    3.777743
  H     -4.131684    1.262440    3.059229
  H     -4.934783    2.780077    3.496466
  H     -0.978320   -2.644754   -2.169060
  H     -4.369277   -1.123820   -0.005243
  H     -3.375278   -2.847533   -1.532369
  H      1.147916   -1.538371   -2.035059
  H      2.628474    0.194098   -1.070872
  H     -0.271673    3.229726    3.053332
  H      2.079106    3.554228    2.345687
  H      3.029303    2.039067    0.552363

 Multiplicity           Mult            ....    1
 Number of Electrons    NEL             ....  140
 Basis Dimension        Dim             ....  402

ORBITAL ENERGIES
----------------

  NO   OCC          E(Eh)            E(eV)
   0   2.0000     -19.164889      -521.5031
   1   2.0000     -19.093542      -519.5617
   2   2.0000     -14.347712      -390.4211
   3   2.0000     -14.317669      -389.6036
   4   2.0000     -10.322372      -280.8860
   5   2.0000     -10.250722      -278.9363
   6   2.0000     -10.227687      -278.3095
   7   2.0000     -10.214308      -277.9454
   8   2.0000     -10.201254      -277.5902
   9   2.0000     -10.199248      -277.5357
  10   2.0000     -10.198801      -277.5235
  11   2.0000     -10.198487      -277.5149
  12   2.0000     -10.195238      -277.4265
  13   2.0000     -10.194784      -277.4142
  14   2.0000     -10.186347      -277.1846
  15   2.0000     -10.185724      -277.1676
  16   2.0000     -10.184912      -277.1455
  17   2.0000     -10.184273      -277.1282
  18   2.0000     -10.180794      -277.0335
  19   2.0000     -10.180377      -277.0221
  20   2.0000      -1.115265       -30.3479
  21   2.0000      -1.028593       -27.9894
  22   2.0000      -0.949625       -25.8406
  23   2.0000      -0.947233       -25.7755
  24   2.0000      -0.876751       -23.8576
  25   2.0000      -0.835471       -22.7343
  26   2.0000      -0.806800       -21.9541
  27   2.0000      -0.782051       -21.2807
  28   2.0000      -0.751851       -20.4589
  29   2.0000      -0.741767       -20.1845
  30   2.0000      -0.722208       -19.6523
  31   2.0000      -0.705460       -19.1965
  32   2.0000      -0.659652       -17.9501
  33   2.0000      -0.648599       -17.6493
  34   2.0000      -0.627160       -17.0659
  35   2.0000      -0.621941       -16.9239
  36   2.0000      -0.572035       -15.5659
  37   2.0000      -0.547787       -14.9061
  38   2.0000      -0.537786       -14.6339
  39   2.0000      -0.530308       -14.4304
  40   2.0000      -0.511316       -13.9136
  41   2.0000      -0.498010       -13.5515
  42   2.0000      -0.490569       -13.3491
  43   2.0000      -0.483752       -13.1636
  44   2.0000      -0.480219       -13.0674
  45   2.0000      -0.464091       -12.6286
  46   2.0000      -0.445386       -12.1196
  47   2.0000      -0.443744       -12.0749
  48   2.0000      -0.436653       -11.8819
  49   2.0000      -0.429021       -11.6743
  50   2.0000      -0.422332       -11.4922
  51   2.0000      -0.411621       -11.2008
  52   2.0000      -0.408148       -11.1063
  53   2.0000      -0.405890       -11.0448
  54   2.0000      -0.404487       -11.0066
  55   2.0000      -0.402232       -10.9453
  56   2.0000      -0.387395       -10.5415
  57   2.0000      -0.385524       -10.4906
  58   2.0000      -0.375364       -10.2142
  59   2.0000      -0.366060        -9.9610
  60   2.0000      -0.355222        -9.6661
  61   2.0000      -0.339129        -9.2282
  62   2.0000      -0.320407        -8.7187
  63   2.0000      -0.307416        -8.3652
  64   2.0000      -0.289624        -7.8811
  65   2.0000      -0.277313        -7.5461
  66   2.0000      -0.268290        -7.3005
  67   2.0000      -0.252198        -6.8627
  68   2.0000      -0.245627        -6.6839
  69   2.0000      -0.219718        -5.9788
  70   0.0000      -0.069856        -1.9009
  71   0.0000      -0.056372        -1.5340
  72   0.0000      -0.014204        -0.3865
  73   0.0000       0.012938         0.3521
  74   0.0000       0.037299         1.0149

----------------------------------------------------------------------------------------------------
                     ABSORPTION SPECTRUM VIA TRANSITION ELECTRIC DIPOLE MOMENTS
----------------------------------------------------------------------------------------------------
     Transition      Energy     Energy  Wavelength fosc(D2)      D2        DX        DY        DZ
                      (eV)      (cm-1)    (nm)                 (au**2)    (au)      (au)      (au)
----------------------------------------------------------------------------------------------------
  0-1A  ->  1-1A    3.499834   28228.1   354.3   0.278572971   3.24888   1.38438   1.02041   0.53956
  0-1A  ->  2-1A    3.924590   31654.0   315.9   0.194117839   2.01889   0.33803   1.12716   0.79633
  0-1A  ->  3-1A    4.264668   34396.9   290.7   0.024628837   0.23572  -0.26324   0.36667   0.17882

MULLIKEN ATOMIC CHARGES
-----------------------
   0 C :   -0.207214
   1 C :   -0.225164
   2 C :   -0.176137
   3 C :    0.228371
   4 C :   -0.004916
   5 O :   -0.355530
   6 C :    0.003770
   7 C :   -0.216384
   8 C :   -0.236296
   9 C :    0.140585
  10 C :    0.006662
  11 N :   -0.436992
  12 C :   -0.077817
  13 C :   -0.307876
  14 C :   -0.184408
  15 C :    0.577928
  16 O :   -0.433644
  17 N :   -0.328757
  18 C :   -0.521898
  19 C :   -0.526980
  20 H :    0.236573
  21 H :    0.240732
  22 H :    0.238451
  23 H :    0.235361
  24 H :    0.247780
  25 H :    0.238191
  26 H :    0.247893
  27 H :    0.245633
  28 H :    0.238861
  29 H :    0.237681
  30 H :    0.231320
  31 H :    0.213046
  32 H :    0.214076
  33 H :    0.217099
Sum of atomic charges:    0.0000000

LOEWDIN ATOMIC CHARGES
----------------------
   0 C :   -0.088961
   1 C :   -0.120942
   2 C :   -0.025020
   3 C :    0.024731
   4 C :   -0.070460
   5 O :    0.083539
   6 C :   -0.049061
   7 C :   -0.080257
   8 C :   -0.083215
   9 C :   -0.019324
  10 C :   -0.043371
  11 N :   -0.093740
  12 C :   -0.118520
  13 C :   -0.154560
  14 C :   -0.149693
  15 C :   -0.100572
  16 O :   -0.167758
  17 N :    0.042796
  18 C :   -0.240521
  19 C :   -0.237609
  20 H :    0.113438
  21 H :    0.118851
  22 H :    0.118979
  23 H :    0.112164
  24 H :    0.119828
  25 H :    0.118388
  26 H :    0.134651
  27 H :    0.132606
  28 H :    0.130652
  29 H :    0.129341
  30 H :    0.125822
  31 H :    0.103143
  32 H :    0.118202
  33 H :    0.116452

  Mayer bond orders larger than 0.100000
B(  0-C ,  1-C ) :   1.3564 B(  0-C ,  3-C ) :   1.3598 B(  0-C , 27-H ) :   0.9132
B(  1-C ,  2-C ) :   1.4100 B(  1-C , 28-H ) :   0.9233 B(  2-C ,  6-C ) :   1.2466
B(  2-C , 26-H ) :   0.9144 B(  3-C ,  4-C ) :   1.1815 B(  3-C ,  5-O ) :   0.9884
B(  4-C ,  6-C ) :   1.2124 B(  4-C ,  9-C ) :   1.2674 B(  5-O , 15-C ) :   0.9452
B(  6-C ,  7-C ) :   1.3396 B(  7-C ,  8-C ) :   1.3794 B(  7-C , 29-H ) :   0.9183
B(  8-C , 10-C ) :   1.3027 B(  8-C , 30-H ) :   0.9232 B(  9-C , 10-C ) :   1.1565
B(  9-C , 11-N ) :   1.4122 B( 10-C , 14-C ) :   1.2638 B( 11-N , 12-C ) :   1.3859
B( 12-C , 13-C ) :   1.4098 B( 12-C , 31-H ) :   0.9308 B( 13-C , 14-C ) :   1.3355
B( 13-C , 32-H ) :   0.9281 B( 14-C , 33-H ) :   0.9327 B( 15-C , 16-O ) :   1.9102
B( 15-C , 17-N ) :   1.2234 B( 17-N , 18-C ) :   0.9498 B( 17-N , 19-C ) :   0.9598
B( 18-C , 23-H ) :   0.9103 B( 18-C , 24-H ) :   0.9146 B( 18-C , 25-H ) :   0.9193
B( 19-C , 20-H ) :   0.9144 B( 19-C , 21-H ) :   0.9197 B( 19-C , 22-H ) :   0.9167

FINAL SINGLE POINT ENERGY      -878.192502268976

DIPOLE MOMENT
-------------

Method             : TDA/CIS
Type of density    : Electron Density
Level              : Relaxed density
State              :   1
Multiplicity       :   1
Irrep              :   0
Energy             :     0.0000000000000000 Eh
Relativity type    :
Basis              : AO
                                X                 Y                 Z
Electronic contribution:      3.385699100      -7.516085823      -6.019835128
Nuclear contribution   :     -3.995600764       6.518992243       6.313042227
                        -----------------------------------------
Total Dipole Moment    :     -0.609901664      -0.997093580       0.293207099
                        -----------------------------------------
Magnitude (a.u.)       :      1.205050227
Magnitude (Debye)      :      3.062994256

VIBRATIONAL FREQUENCIES
-----------------------

Scaling factor for frequencies =  1.000000000  (already applied!)

     0:       0.00 cm**-1
     1:       0.00 cm**-1
     2:       0.00 cm**-1
     3:       0.00 cm**-1
     4:       0.00 cm**-1
     5:       0.00 cm**-1
     6:      35.22 cm**-1
     7:      45.25 cm**-1
     8:      50.51 cm**-1
     9:      72.88 cm**-1
    10:      92.86 cm**-1
    11:     105.28 cm**-1
    12:     116.28 cm**-1
    13:     137.58 cm**-1
    14:     186.11 cm**-1
    15:     197.39 cm**-1
    16:     214.46 cm**-1
    17:     228.86 cm**-1
    18:     254.67 cm**-1
    19:     278.80 cm**-1
    20:     356.25 cm**-1
    21:     366.87 cm**-1
    22:     367.34 cm**-1
    23:     403.66 cm**-1
    24:     449.01 cm**-1
    25:     459.14 cm**-1
    26:     463.93 cm**-1
    27:     492.78 cm**-1
    28:     506.14 cm**-1
    29:     521.46 cm**-1
    30:     536.52 cm**-1
    31:     581.87 cm**-1
    32:     595.42 cm**-1
    33:     630.87 cm**-1
    34:     666.45 cm**-1
    35:     670.92 cm**-1
    36:     691.29 cm**-1
    37:     701.61 cm**-1
    38:     711.64 cm**-1
    39:     749.59 cm**-1
    40:     781.27 cm**-1
    41:     810.18 cm**-1
    42:     816.06 cm**-1
    43:     829.62 cm**-1
    44:     838.43 cm**-1
    45:     847.03 cm**-1
    46:     900.17 cm**-1
    47:     916.86 cm**-1
    48:     927.37 cm**-1
    49:     945.13 cm**-1
    50:     973.38 cm**-1
    51:     995.29 cm**-1
    52:    1013.00 cm**-1
    53:    1074.69 cm**-1
    54:    1079.06 cm**-1
    55:    1086.76 cm**-1
    56:    1099.31 cm**-1
    57:    1113.75 cm**-1
    58:    1128.98 cm**-1
    59:    1131.78 cm**-1
    60:    1168.76 cm**-1
    61:    1177.23 cm**-1
    62:    1197.69 cm**-1
    63:    1208.77 cm**-1
    64:    1252.62 cm**-1
    65:    1256.47 cm**-1
    66:    1286.15 cm**-1
    67:    1288.27 cm**-1
    68:    1334.49 cm**-1
    69:    1369.35 cm**-1
    70:    1383.16 cm**-1
    71:    1407.82 cm**-1
    72:    1419.21 cm**-1
    73:    1428.86 cm**-1
    74:    1448.20 cm**-1
    75:    1451.01 cm**-1
    76:    1459.80 cm**-1
    77:    1473.10 cm**-1
    78:    1489.36 cm**-1
    79:    1499.42 cm**-1
    80:    1500.95 cm**-1
    81:    1504.21 cm**-1
    82:    1511.82 cm**-1
    83:    1530.17 cm**-1
    84:    1545.79 cm**-1
    85:    1550.85 cm**-1
    86:    1571.81 cm**-1
    87:    1765.98 cm**-1
    88:    3025.75 cm**-1
    89:    3030.43 cm**-1
    90:    3096.15 cm**-1
    91:    3097.56 cm**-1
    92:    3162.28 cm**-1
    93:    3167.96 cm**-1
    94:    3176.10 cm**-1
    95:    3182.62 cm**-1
    96:    3184.22 cm**-1
    97:    3189.69 cm**-1
    98:    3191.11 cm**-1
    99:    3197.13 cm**-1
   100:    3201.39 cm**-1
   101:    3216.97 cm**-1

IR SPECTRUM
-----------

 Mode   freq       eps      Int      T**2         TX        TY        TZ
       cm**-1   L/(mol*cm) km/mol    a.u.
----------------------------------------------------------------------------
  6:     35.22   0.000572    2.89  0.005070  (-0.046370  0.051460 -0.016493)
  7:     45.25   0.000253    1.28  0.001747  ( 0.001178 -0.041334 -0.006099)
  8:     50.51   0.001381    6.98  0.008534  (-0.073481 -0.013640 -0.054303)
  9:     72.88   0.000421    2.13  0.001803  ( 0.039383 -0.009944  0.012356)
 10:     92.86   0.001603    8.10  0.005388  ( 0.006796 -0.043856  0.058466)
 11:    105.28   0.000258    1.30  0.000764  ( 0.022530  0.015362  0.004560)
 12:    116.28   0.000113    0.57  0.000303  (-0.002738  0.016876 -0.003277)
 13:    137.58   0.000667    3.37  0.001514  ( 0.034711 -0.014715  0.009620)
 14:    186.11   0.000367    1.85  0.000615  ( 0.014416 -0.019939 -0.003171)
 15:    197.39   0.001182    5.97  0.001868  (-0.009906 -0.014455  0.039514)
 16:    214.46   0.000336    1.70  0.000488  (-0.016439  0.009170 -0.011580)
 17:    228.86   0.001371    6.93  0.001869  (-0.033774  0.007468  0.025939)
 18:    254.67   0.000816    4.12  0.001000  ( 0.030345 -0.007412 -0.004934)
 19:    278.80   0.000338    1.71  0.000379  ( 0.005095  0.016759 -0.008480)
 20:    356.25   0.000579    2.93  0.000508  ( 0.017132 -0.011025 -0.009621)
 21:    366.87   0.001996   10.09  0.001698  (-0.016397  0.037801  0.000089)
 22:    367.34   0.002719   13.74  0.002310  ( 0.017818 -0.041402 -0.016677)
 23:    403.66   0.001716    8.67  0.001326  (-0.016825  0.019978  0.025380)
 24:    449.01   0.001424    7.20  0.000990  ( 0.007399 -0.008584  0.029353)
 25:    459.14   0.000505    2.55  0.000343  (-0.011797  0.006625  0.012648)
 26:    463.93   0.000204    1.03  0.000137  (-0.007719  0.004165 -0.007749)
 27:    492.78   0.000130    0.66  0.000082  ( 0.000835  0.006335  0.006452)
 28:    506.14   0.001112    5.62  0.000686  (-0.003712 -0.025904 -0.001007)
 29:    521.46   0.001274    6.44  0.000763  ( 0.017939  0.015259  0.014418)
 30:    536.52   0.000823    4.16  0.000479  ( 0.015327  0.013039  0.008596)
 31:    581.87   0.000692    3.50  0.000371  (-0.019126  0.001271 -0.001909)
 32:    595.42   0.006756   34.14  0.003541  ( 0.040211  0.043764  0.002913)
 33:    630.87   0.008030   40.58  0.003972  ( 0.008961  0.025567  0.056905)
 34:    666.45   0.002445   12.35  0.001145  ( 0.002427 -0.018874  0.027976)
 35:    670.92   0.011314   57.18  0.005263  ( 0.018029 -0.062591  0.031935)
 36:    691.29   0.003880   19.61  0.001751  (-0.006746  0.028360 -0.030028)
 37:    701.61   0.006601   33.36  0.002936  (-0.039622 -0.032390 -0.017809)
 38:    711.64   0.006893   34.84  0.003023  ( 0.049851 -0.001556  0.023136)
 39:    749.59   0.002971   15.02  0.001237  (-0.010263 -0.003189 -0.033489)
 40:    781.27   0.006997   35.36  0.002795  ( 0.017243 -0.005866  0.049628)
 41:    810.18   0.007880   39.82  0.003035  (-0.013745  0.024566 -0.047358)
 42:    816.06   0.006018   30.41  0.002301  ( 0.014692  0.040379 -0.021327)
 43:    829.62   0.003863   19.52  0.001453  (-0.005382  0.030269 -0.022534)
 44:    838.43   0.012136   61.33  0.004517  (-0.022502  0.063255  0.003091)
 45:    847.03   0.001964    9.93  0.000724  ( 0.009409  0.006723  0.024287)
 46:    900.17   0.001138    5.75  0.000395  ( 0.008609  0.014842  0.010009)
 47:    916.86   0.001147    5.80  0.000390  (-0.005122  0.018999  0.001771)
 48:    927.37   0.000283    1.43  0.000095  ( 0.003208 -0.002374 -0.008896)
 49:    945.13   0.000943    4.76  0.000311  (-0.000582 -0.002972 -0.017381)
 50:    973.38   0.021563  108.97  0.006913  (-0.026940  0.078095 -0.009398)
 51:    995.29   0.013921   70.35  0.004365  ( 0.039390 -0.048204 -0.022130)
 52:   1013.00   0.028410  143.57  0.008752  (-0.029803  0.082831  0.031666)
 53:   1074.69   0.004737   23.94  0.001376  (-0.031090  0.019500  0.005361)
 54:   1079.06   0.038739  195.77  0.011203  (-0.024724  0.097654  0.032494)
 55:   1086.76   0.028694  145.01  0.008240  (-0.016219  0.070343  0.055030)
 56:   1099.31   0.006770   34.21  0.001922  ( 0.026065  0.030118  0.018312)
 57:   1113.75   0.139359  704.27  0.039047  ( 0.101307 -0.148462 -0.082117)
 58:   1128.98   0.004797   24.24  0.001326  (-0.013115  0.033969 -0.000216)
 59:   1131.78   0.007068   35.72  0.001949  ( 0.022492 -0.029871 -0.023469)
 60:   1168.76   0.003084   15.59  0.000823  ( 0.011999 -0.025272 -0.006388)
 61:   1177.23   0.001501    7.59  0.000398  (-0.012418 -0.005068  0.014769)
 62:   1197.69   0.016712   84.46  0.004354  ( 0.037501 -0.051927 -0.015864)
 63:   1208.77   0.004905   24.79  0.001266  ( 0.030150  0.018879 -0.000916)
 64:   1252.62   0.010668   53.91  0.002658  ( 0.027781 -0.040698 -0.015156)
 65:   1256.47   0.021450  108.40  0.005327  (-0.042047  0.058569  0.011359)
 66:   1286.15   0.001512    7.64  0.000367  ( 0.003620  0.001074 -0.018776)
 67:   1288.27   0.003007   15.20  0.000728  (-0.019655 -0.018493  0.000135)
 68:   1334.49   0.020693  104.57  0.004839  (-0.037218  0.049421  0.031801)
 69:   1369.35   0.008940   45.18  0.002037  (-0.028007 -0.031197 -0.016723)
 70:   1383.16   0.000273    1.38  0.000062  ( 0.000167  0.005449 -0.005641)
 71:   1407.82   0.030137  152.30  0.006680  (-0.031915  0.068620  0.030871)
 72:   1419.21   0.008929   45.12  0.001963  ( 0.030468 -0.026851 -0.017719)
 73:   1428.86   0.003492   17.65  0.000763  (-0.016887  0.015587  0.015316)
 74:   1448.20   0.001043    5.27  0.000225  (-0.014150 -0.000242 -0.004952)
 75:   1451.01   0.002672   13.50  0.000575  ( 0.007998  0.000249 -0.022598)
 76:   1459.80   0.007605   38.43  0.001626  (-0.034111  0.018724  0.010563)
 77:   1473.10   0.003858   19.50  0.000817  (-0.000471  0.015196 -0.024210)
 78:   1489.36   0.000256    1.30  0.000054  (-0.003312 -0.005188  0.003976)
 79:   1499.42   0.005687   28.74  0.001184  (-0.034254 -0.002933 -0.001317)
 80:   1500.95   0.002527   12.77  0.000525  ( 0.021150 -0.002426 -0.008495)
 81:   1504.21   0.005738   29.00  0.001190  (-0.015032 -0.022671  0.021223)
 82:   1511.82   0.000845    4.27  0.000174  (-0.008015 -0.003876 -0.009752)
 83:   1530.17   0.013464   68.04  0.002746  (-0.016888  0.047787  0.013307)
 84:   1545.79   0.005719   28.90  0.001155  (-0.027624  0.004050  0.019368)
 85:   1550.85   0.004240   21.43  0.000853  ( 0.023243  0.016153  0.007219)
 86:   1571.81   0.004414   22.30  0.000876  ( 0.011563 -0.018149 -0.020327)
 87:   1765.98   0.178100  900.04  0.031472  ( 0.058188 -0.000503 -0.167588)
 88:   3025.75   0.008221   41.55  0.000848  (-0.000929 -0.023292  0.017451)
 89:   3030.43   0.021736  109.85  0.002238  ( 0.006020  0.026766  0.038545)
 90:   3096.15   0.015332   77.48  0.001545  ( 0.039083 -0.004150  0.000810)
 91:   3097.56   0.003437   17.37  0.000346  ( 0.018224 -0.001943 -0.003216)
 92:   3162.28   0.005497   27.78  0.000542  (-0.005062  0.013307  0.018433)
 93:   3167.96   0.001709    8.64  0.000168  ( 0.001951  0.002947 -0.012485)
 94:   3176.10   0.000239    1.21  0.000023  ( 0.000017 -0.003605 -0.003240)
 95:   3182.62   0.002560   12.93  0.000251  ( 0.002454 -0.015212 -0.003679)
 96:   3184.22   0.000563    2.85  0.000055  ( 0.005622  0.003774  0.003056)
 97:   3189.69   0.009014   45.55  0.000882  ( 0.021608 -0.009679 -0.017926)
 98:   3191.11   0.001292    6.53  0.000126  ( 0.005480 -0.005963 -0.007794)
 99:   3197.13   0.005129   25.92  0.000501  ( 0.012537 -0.012769 -0.013431)
100:   3201.39   0.009459   47.80  0.000922  ( 0.017921  0.021128  0.012431)
101:   3216.97   0.004846   24.49  0.000470  (-0.013564 -0.015244 -0.007330)

--------------------------
THERMOCHEMISTRY AT 298.15K
--------------------------

Temperature         ...   298.15 K
Pressure            ...     1.00 atm
Total Mass          ...   266.30 AMU
Quasi RRHO          ...     True
Cut-Off Frequency   ...     1.00 cm^-1

Throughout the following assumptions are being made:
  (1) The electronic state is orbitally nondegenerate
  (2) There are no thermally accessible electronically excited states
  (3) Hindered rotations indicated by low frequency modes are not
      treated as such but are treated as vibrations and this may
      cause some error
  (4) All equations used are the standard statistical mechanics
      equations for an ideal gas
  (5) All vibrations are strictly harmonic

freq.      35.22  E(vib)   ...       0.54
freq.      45.25  E(vib)   ...       0.53
freq.      50.51  E(vib)   ...       0.52
freq.      72.88  E(vib)   ...       0.49
freq.      92.86  E(vib)   ...       0.47
freq.     105.28  E(vib)   ...       0.45
freq.     116.28  E(vib)   ...       0.44
freq.     137.58  E(vib)   ...       0.42
freq.     186.11  E(vib)   ...       0.37
freq.     197.39  E(vib)   ...       0.35
freq.     214.46  E(vib)   ...       0.34
freq.     228.86  E(vib)   ...       0.32
freq.     254.67  E(vib)   ...       0.30
freq.     278.80  E(vib)   ...       0.28
freq.     356.25  E(vib)   ...       0.22
freq.     366.87  E(vib)   ...       0.22
freq.     367.34  E(vib)   ...       0.21
freq.     403.66  E(vib)   ...       0.19
freq.     449.01  E(vib)   ...       0.17
freq.     459.14  E(vib)   ...       0.16
freq.     463.93  E(vib)   ...       0.16
freq.     492.78  E(vib)   ...       0.14
freq.     506.14  E(vib)   ...       0.14
freq.     521.46  E(vib)   ...       0.13
freq.     536.52  E(vib)   ...       0.12
freq.     581.87  E(vib)   ...       0.11
freq.     595.42  E(vib)   ...       0.10
freq.     630.87  E(vib)   ...       0.09
freq.     666.45  E(vib)   ...       0.08
freq.     670.92  E(vib)   ...       0.08
freq.     691.29  E(vib)   ...       0.07
freq.     701.61  E(vib)   ...       0.07
freq.     711.64  E(vib)   ...       0.07
freq.     749.59  E(vib)   ...       0.06
freq.     781.27  E(vib)   ...       0.05
freq.     810.18  E(vib)   ...       0.05
freq.     816.06  E(vib)   ...       0.05
freq.     829.62  E(vib)   ...       0.04
freq.     838.43  E(vib)   ...       0.04
freq.     847.03  E(vib)   ...       0.04
freq.     900.17  E(vib)   ...       0.03
freq.     916.86  E(vib)   ...       0.03
freq.     927.37  E(vib)   ...       0.03
freq.     945.13  E(vib)   ...       0.03
freq.     973.38  E(vib)   ...       0.03
freq.     995.29  E(vib)   ...       0.02
freq.    1013.00  E(vib)   ...       0.02
freq.    1074.69  E(vib)   ...       0.02
freq.    1079.06  E(vib)   ...       0.02
freq.    1086.76  E(vib)   ...       0.02
freq.    1099.31  E(vib)   ...       0.02
freq.    1113.75  E(vib)   ...       0.01
freq.    1128.98  E(vib)   ...       0.01
freq.    1131.78  E(vib)   ...       0.01
freq.    1168.76  E(vib)   ...       0.01
freq.    1177.23  E(vib)   ...       0.01
freq.    1197.69  E(vib)   ...       0.01
freq.    1208.77  E(vib)   ...       0.01
freq.    1252.62  E(vib)   ...       0.01
freq.    1256.47  E(vib)   ...       0.01
freq.    1286.15  E(vib)   ...       0.01
freq.    1288.27  E(vib)   ...       0.01
freq.    1334.49  E(vib)   ...       0.01
freq.    1369.35  E(vib)   ...       0.01
freq.    1383.16  E(vib)   ...       0.00
freq.    1407.82  E(vib)   ...       0.00
freq.    1419.21  E(vib)   ...       0.00
freq.    1428.86  E(vib)   ...       0.00
freq.    1448.20  E(vib)   ...       0.00
freq.    1451.01  E(vib)   ...       0.00
freq.    1459.80  E(vib)   ...       0.00
freq.    1473.10  E(vib)   ...       0.00
freq.    1489.36  E(vib)   ...       0.00
freq.    1499.42  E(vib)   ...       0.00
freq.    1500.95  E(vib)   ...       0.00
freq.    1504.21  E(vib)   ...       0.00
freq.    1511.82  E(vib)   ...       0.00
freq.    1530.17  E(vib)   ...       0.00
freq.    1545.79  E(vib)   ...       0.00
freq.    1550.85  E(vib)   ...       0.00
freq.    1571.81  E(vib)   ...       0.00
freq.    1765.98  E(vib)   ...       0.00
freq.    3025.75  E(vib)   ...       0.00
freq.    3030.43  E(vib)   ...       0.00
freq.    3096.15  E(vib)   ...       0.00
freq.    3097.56  E(vib)   ...       0.00
freq.    3162.28  E(vib)   ...       0.00
freq.    3167.96  E(vib)   ...       0.00
freq.    3176.10  E(vib)   ...       0.00
freq.    3182.62  E(vib)   ...       0.00
freq.    3184.22  E(vib)   ...       0.00
freq.    3189.69  E(vib)   ...       0.00
freq.    3191.11  E(vib)   ...       0.00
freq.    3197.13  E(vib)   ...       0.00
freq.    3201.39  E(vib)   ...       0.00
freq.    3216.97  E(vib)   ...       0.00

------------
INNER ENERGY
------------

The inner energy is: U= E(el) + E(ZPE) + E(vib) + E(rot) + E(trans)
    E(el)   - is the total energy from the electronic structure calculation
              = E(kin-el) + E(nuc-el) + E(el-el) + E(nuc-nuc)
    E(ZPE)  - the the zero temperature vibrational energy from the frequency calculation
    E(vib)  - the the finite temperature correction to E(ZPE) due to population
              of excited vibrational states
    E(rot)  - is the rotational thermal energy
    E(trans)- is the translational thermal energy

Summary of contributions to the inner energy U:
Electronic energy                ...   -878.19250253 Eh
Zero point energy                ...      0.26392046 Eh     165.61 kcal/mol
Thermal vibrational correction   ...      0.01459624 Eh       9.16 kcal/mol
Thermal rotational correction    ...      0.00141627 Eh       0.89 kcal/mol
Thermal translational correction ...      0.00141627 Eh       0.89 kcal/mol
-----------------------------------------------------------------------
Total thermal energy                   -877.91115328 Eh

Summary of corrections to the electronic energy:
(perhaps to be used in another calculation)
Total thermal correction                  0.01742879 Eh      10.94 kcal/mol
Non-thermal (ZPE) correction              0.26392046 Eh     165.61 kcal/mol
-----------------------------------------------------------------------
Total correction                          0.28134925 Eh     176.55 kcal/mol

--------
ENTHALPY
--------

The enthalpy is H = U + kB*T
                kB is Boltzmann's constant
Total thermal energy              ...   -877.91115328 Eh
Thermal Enthalpy correction       ...      0.00094421 Eh       0.59 kcal/mol
-----------------------------------------------------------------------
Total Enthalpy                    ...   -877.91020907 Eh

Note: Only C1 symmetry has been detected, increase convergence thresholds
      if your molecule has a higher symmetry. Symmetry factor of 1.0 is

Rotational constants in cm-1:     0.015910     0.011669     0.007442

                             ****ORCA TERMINATED NORMALLY****
TOTAL RUN TIME: 0 days 22 hours 2 minutes 57 seconds 101 msec
