                         Program Version 5.0.4 -  RELEASE  -
|  1> ! B3LYP/G VERYTIGHTOPT FREQ Def2-TZVP(-f) Def2-TZVP/C Def2/J RIJCOSX TightSCF CPCM(Water) AllPop SOSCF
|  2>
|  3> %tddft
|  4>     NRoots 3
|  5>     IRoot 1
|  6> end
|  7>
|  8> * xyz 0 1
|  9>   C   -3.12087192703524     -0.64375484774937     -0.17509944076070
| 10>   C   -2.67557237067362     -1.73303798077613     -0.92229199608865
| 11>   C   -1.31949796039919     -1.87143195092305     -1.17691219457670
| 12>   C   -2.21214190547548      0.31991025452364      0.28602474558309
| 13>   C   -0.82113087993950      0.27673622153237     -0.03479642714783
| 14>   O   -2.63498144390484      1.24398539876685      1.18855074832960
| 15>   C   -0.37643870931578     -0.90782602211272     -0.73570260125468
| 16>   C   0.98442356538579     -1.08988841630951     -0.99682826091951
| 17>   C   1.91561475843292     -0.13431111705323     -0.59688341579230
| 18>   C   0.11790915978979      1.32763211156651      0.24797261646743
| 19>   C   1.52078417491001      1.07781243640450     -0.00416706890002
| 20>   N   -0.30558123232688      2.52806688290511      0.72189297762733
| 21>   C   0.62340978637044      3.44740695974640      1.05705384541838
| 22>   C   1.99432481278766      3.25961193473067      0.93284478791646
| 23>   C   2.46052659253979      2.07093650322348      0.37092047763987
| 24>   C   -3.82667732276808      1.93868757996704      1.00353723270188
| 25>   O   -4.34376703189302      2.04365648238006     -0.09349960387389
| 26>   N   -4.25478941931480      2.48223888797274      2.15201037205029
| 27>   C   -5.42901227675256      3.34728461855641      2.13641134961215
| 28>   C   -3.60412898151772      2.32649396999597      3.45016113986718
| 29>   H   -2.77722922106739      1.63043110525503      3.38693116714979
| 30>   H   -4.33264467231194      1.95327560096636      4.17220958464789
| 31>   H   -3.23627979009871      3.29482793521057      3.79654274390292
| 32>   H   -5.86610620617295      3.35546362461924      1.14413992587756
| 33>   H   -5.14604678120242      4.36373806660890      2.41932122177495
| 34>   H   -6.16250871917112      2.97663949018861      2.85458434651013
| 35>   H   -0.95376738492604     -2.72925228300467     -1.72736963001812
| 36>   H   -4.15941555762419     -0.56137974761514      0.10901897650572
| 37>   H   -3.37802943871356     -2.48189753499118     -1.26084080003836
| 38>   H   1.30899768999310     -1.98617877064080     -1.50966033515054
| 39>   H   2.97170610440538     -0.31184980702740     -0.76137451024775
| 40>   H   0.23813146724427      4.39631600952427      1.41633667362341
| 41>   H   2.67435223021308      4.04941081853605      1.22466627329643
| 42>   H   3.51459889053286      1.89807558502236      0.19867507826655
| 43> **                         ****END OF INPUT****
 Total Charge           Charge          ....    0
 Multiplicity           Mult            ....    1
 Number of Electrons    NEL             ....  140
FINAL SINGLE POINT ENERGY      -878.302174348166
FINAL SINGLE POINT ENERGY      -878.302174257463
FINAL SINGLE POINT ENERGY      -878.302179304446
FINAL SINGLE POINT ENERGY      -878.302182419288
FINAL SINGLE POINT ENERGY      -878.302185737936
FINAL SINGLE POINT ENERGY      -878.302195563255
FINAL SINGLE POINT ENERGY      -878.302197597030
FINAL SINGLE POINT ENERGY      -878.302196373368
FINAL SINGLE POINT ENERGY      -878.302196659110
FINAL SINGLE POINT ENERGY      -878.302195895446
FINAL SINGLE POINT ENERGY      -878.302197911194
FINAL SINGLE POINT ENERGY      -878.302198384121
FINAL SINGLE POINT ENERGY      -878.302197340682
FINAL SINGLE POINT ENERGY      -878.302197623905
FINAL SINGLE POINT ENERGY      -878.302197748266
                    ***********************HURRAY********************

CARTESIAN COORDINATES (ANGSTROEM)
---------------------------------
  C     -3.118187   -0.646911   -0.163517
  C     -2.673867   -1.737345   -0.909629
  C     -1.318387   -1.874250   -1.168464
  C     -2.209354    0.319191    0.292367
  C     -0.819515    0.277187   -0.032602
  O     -2.631732    1.244866    1.193915
  C     -0.375363   -0.908332   -0.732663
  C      0.985079   -1.088574   -0.997419
  C      1.916026   -0.130726   -0.602251
  C      0.118952    1.329838    0.245739
  C      1.521536    1.082045   -0.010533
  N     -0.305035    2.530235    0.719374
  C      0.623416    3.451526    1.050504
  C      1.994245    3.265818    0.921838
  C      2.460779    2.077370    0.359697
  C     -3.822056    1.940548    1.004051
  O     -4.332509    2.049437   -0.095764
  N     -4.255400    2.481753    2.151557
  C     -5.421182    3.358095    2.131904
  C     -3.620285    2.307176    3.454991
  H     -2.833888    1.564418    3.405279
  H     -4.373442    1.982664    4.175036
  H     -3.201054    3.256962    3.794500
  H     -5.802051    3.439553    1.119990
  H     -5.142546    4.348559    2.497972
  H     -6.197775    2.951281    2.782444
  H     -0.953597   -2.732941   -1.718190
  H     -4.156003   -0.565423    0.123833
  H     -3.376427   -2.487893   -1.244142
  H      1.309639   -1.985487   -1.509166
  H      2.971802   -0.307064   -0.770059
  H      0.237827    4.400269    1.409852
  H      2.673902    4.057285    1.209999
  H      3.514612    1.906699    0.183934

 Multiplicity           Mult            ....    1
 Number of Electrons    NEL             ....  140
 Basis Dimension        Dim             ....  564

ORBITAL ENERGIES
----------------

  NO   OCC          E(Eh)            E(eV)
   0   2.0000     -19.177775      -521.8538
   1   2.0000     -19.106863      -519.9242
   2   2.0000     -14.359816      -390.7505
   3   2.0000     -14.321285      -389.7020
   4   2.0000     -10.327398      -281.0228
   5   2.0000     -10.252379      -278.9814
   6   2.0000     -10.227832      -278.3135
   7   2.0000     -10.213519      -277.9240
   8   2.0000     -10.201183      -277.5883
   9   2.0000     -10.200559      -277.5713
  10   2.0000     -10.199133      -277.5325
  11   2.0000     -10.198765      -277.5225
  12   2.0000     -10.198299      -277.5098
  13   2.0000     -10.197725      -277.4942
  14   2.0000     -10.185809      -277.1700
  15   2.0000     -10.185675      -277.1663
  16   2.0000     -10.184975      -277.1473
  17   2.0000     -10.184385      -277.1312
  18   2.0000     -10.181694      -277.0580
  19   2.0000     -10.179932      -277.0100
  20   2.0000      -1.121189       -30.5091
  21   2.0000      -1.032934       -28.1076
  22   2.0000      -0.954559       -25.9749
  23   2.0000      -0.947583       -25.7851
  24   2.0000      -0.877766       -23.8852
  25   2.0000      -0.835843       -22.7445
  26   2.0000      -0.806389       -21.9430
  27   2.0000      -0.783675       -21.3249
  28   2.0000      -0.754260       -20.5245
  29   2.0000      -0.739431       -20.1209
  30   2.0000      -0.724729       -19.7209
  31   2.0000      -0.710525       -19.3344
  32   2.0000      -0.658117       -17.9083
  33   2.0000      -0.651552       -17.7296
  34   2.0000      -0.636440       -17.3184
  35   2.0000      -0.613727       -16.7004
  36   2.0000      -0.579599       -15.7717
  37   2.0000      -0.545877       -14.8541
  38   2.0000      -0.537722       -14.6322
  39   2.0000      -0.530623       -14.4390
  40   2.0000      -0.520100       -14.1527
  41   2.0000      -0.497510       -13.5379
  42   2.0000      -0.494724       -13.4621
  43   2.0000      -0.484078       -13.1724
  44   2.0000      -0.480359       -13.0712
  45   2.0000      -0.467307       -12.7161
  46   2.0000      -0.448806       -12.2126
  47   2.0000      -0.443966       -12.0809
  48   2.0000      -0.437894       -11.9157
  49   2.0000      -0.429483       -11.6868
  50   2.0000      -0.419527       -11.4159
  51   2.0000      -0.414053       -11.2670
  52   2.0000      -0.411098       -11.1865
  53   2.0000      -0.408977       -11.1288
  54   2.0000      -0.406128       -11.0513
  55   2.0000      -0.403623       -10.9831
  56   2.0000      -0.389168       -10.5898
  57   2.0000      -0.385087       -10.4788
  58   2.0000      -0.376305       -10.2398
  59   2.0000      -0.366928        -9.9846
  60   2.0000      -0.356469        -9.7000
  61   2.0000      -0.341158        -9.2834
  62   2.0000      -0.327213        -8.9039
  63   2.0000      -0.309076        -8.4104
  64   2.0000      -0.295196        -8.0327
  65   2.0000      -0.277013        -7.5379
  66   2.0000      -0.265133        -7.2146
  67   2.0000      -0.257460        -7.0058
  68   2.0000      -0.244991        -6.6666
  69   2.0000      -0.219721        -5.9789
  70   0.0000      -0.070675        -1.9232
  71   0.0000      -0.057648        -1.5687
  72   0.0000      -0.016720        -0.4550
  73   0.0000       0.008665         0.2358
  74   0.0000       0.031890         0.8678

MULLIKEN ATOMIC CHARGES
-----------------------
   0 C :   -0.158490
   1 C :   -0.108933
   2 C :   -0.214569
   3 C :    0.171236
   4 C :    0.190072
   5 O :   -0.445001
   6 C :    0.217469
   7 C :   -0.226514
   8 C :   -0.260099
   9 C :    0.084291
  10 C :    0.335228
  11 N :   -0.505547
  12 C :    0.069184
  13 C :   -0.062724
  14 C :   -0.199978
  15 C :    0.670070
  16 O :   -0.617883
  17 N :   -0.216168
  18 C :   -0.248521
  19 C :   -0.260281
  20 H :    0.156245
  21 H :    0.138132
  22 H :    0.137851
  23 H :    0.147098
  24 H :    0.137695
  25 H :    0.139517
  26 H :    0.111393
  27 H :    0.113151
  28 H :    0.115027
  29 H :    0.111926
  30 H :    0.108617
  31 H :    0.119372
  32 H :    0.122061
  33 H :    0.129073
Sum of atomic charges:   -0.0000000

LOEWDIN ATOMIC CHARGES
----------------------
   0 C :   -0.104372
   1 C :   -0.126205
   2 C :   -0.099871
   3 C :   -0.126595
   4 C :   -0.030130
   5 O :    0.191567
   6 C :   -0.092173
   7 C :   -0.089247
   8 C :   -0.091116
   9 C :   -0.092702
  10 C :   -0.096244
  11 N :    0.044339
  12 C :   -0.157084
  13 C :   -0.134661
  14 C :   -0.056147
  15 C :   -0.349327
  16 O :   -0.087192
  17 N :    0.083203
  18 C :   -0.213224
  19 C :   -0.217219
  20 H :    0.119229
  21 H :    0.115269
  22 H :    0.113567
  23 H :    0.119229
  24 H :    0.114548
  25 H :    0.114519
  26 H :    0.143184
  27 H :    0.145739
  28 H :    0.142667
  29 H :    0.146667
  30 H :    0.144937
  31 H :    0.133334
  32 H :    0.144061
  33 H :    0.147449

  Mayer bond orders larger than 0.100000
B(  0-C ,  1-C ) :   1.2958 B(  0-C ,  3-C ) :   1.4232 B(  0-C , 27-H ) :   0.9907
B(  1-C ,  2-C ) :   1.4123 B(  1-C , 28-H ) :   0.9904 B(  2-C ,  6-C ) :   1.2624
B(  2-C , 26-H ) :   0.9957 B(  3-C ,  4-C ) :   1.1684 B(  3-C ,  5-O ) :   0.9935
B(  4-C ,  6-C ) :   1.2900 B(  4-C ,  9-C ) :   1.0949 B(  5-O , 15-C ) :   0.9912
B(  6-C ,  7-C ) :   1.1807 B(  7-C ,  8-C ) :   1.4661 B(  7-C , 29-H ) :   1.0070
B(  8-C , 10-C ) :   1.1527 B(  8-C , 30-H ) :   1.0091 B(  9-C , 10-C ) :   1.2727
B(  9-C , 11-N ) :   1.3743 B( 10-C , 14-C ) :   1.2923 B( 11-N , 12-C ) :   1.5286
B( 12-C , 13-C ) :   1.3420 B( 12-C , 31-H ) :   0.9761 B( 13-C , 14-C ) :   1.4485
B( 13-C , 32-H ) :   0.9640 B( 14-C , 33-H ) :   0.9694 B( 15-C , 16-O ) :   1.8242
B( 15-C , 17-N ) :   1.3521 B( 17-N , 18-C ) :   0.9368 B( 17-N , 19-C ) :   0.9419
B( 18-C , 23-H ) :   0.9625 B( 18-C , 24-H ) :   0.9602 B( 18-C , 25-H ) :   0.9620
B( 19-C , 20-H ) :   0.9596 B( 19-C , 21-H ) :   0.9601 B( 19-C , 22-H ) :   0.9614

-----------------------------------------------------------------------------
         ABSORPTION SPECTRUM VIA TRANSITION ELECTRIC DIPOLE MOMENTS
-----------------------------------------------------------------------------
State   Energy    Wavelength  fosc         T2        TX        TY        TZ
        (cm-1)      (nm)                 (au**2)    (au)      (au)      (au)
-----------------------------------------------------------------------------
   1   28067.2    356.3   0.303573656   3.56074  -1.45547  -1.14608  -0.35896
   2   31293.2    319.6   0.183505986   1.93053   0.32089   1.21865   0.58519
   3   33486.7    298.6   0.015961339   0.15692  -0.30543   0.06747   0.24306

FINAL SINGLE POINT ENERGY      -878.302196854047

DIPOLE MOMENT
-------------
                                X             Y             Z
Electronic contribution:      5.22227      -5.33740      -6.80246
Nuclear contribution   :     -5.77956       3.87104       8.02915
                        -----------------------------------------
Total Dipole Moment    :     -0.55729      -1.46636       1.22668
                        -----------------------------------------
Magnitude (a.u.)       :      1.99137
Magnitude (Debye)      :      5.06165

VIBRATIONAL FREQUENCIES
-----------------------

Scaling factor for frequencies =  1.000000000 (already applied!)

   0:         0.00 cm**-1
   1:         0.00 cm**-1
   2:         0.00 cm**-1
   3:         0.00 cm**-1
   4:         0.00 cm**-1
   5:         0.00 cm**-1
   6:        24.65 cm**-1
   7:        34.42 cm**-1
   8:        42.23 cm**-1
   9:        54.89 cm**-1
  10:        76.05 cm**-1
  11:        91.04 cm**-1
  12:       103.96 cm**-1
  13:       126.14 cm**-1
  14:       182.04 cm**-1
  15:       197.89 cm**-1
  16:       208.42 cm**-1
  17:       234.99 cm**-1
  18:       242.90 cm**-1
  19:       261.71 cm**-1
  20:       344.98 cm**-1
  21:       357.58 cm**-1
  22:       383.99 cm**-1
  23:       402.06 cm**-1
  24:       448.16 cm**-1
  25:       460.12 cm**-1
  26:       472.59 cm**-1
  27:       494.02 cm**-1
  28:       505.15 cm**-1
  29:       524.54 cm**-1
  30:       537.77 cm**-1
  31:       587.39 cm**-1
  32:       603.51 cm**-1
  33:       624.14 cm**-1
  34:       675.58 cm**-1
  35:       685.06 cm**-1
  36:       691.02 cm**-1
  37:       708.85 cm**-1
  38:       739.83 cm**-1
  39:       751.07 cm**-1
  40:       795.76 cm**-1
  41:       807.92 cm**-1
  42:       818.58 cm**-1
  43:       836.12 cm**-1
  44:       836.62 cm**-1
  45:       843.56 cm**-1
  46:       891.84 cm**-1
  47:       913.57 cm**-1
  48:       922.28 cm**-1
  49:       942.84 cm**-1
  50:       970.58 cm**-1
  51:       990.63 cm**-1
  52:      1019.87 cm**-1
  53:      1071.85 cm**-1
  54:      1073.95 cm**-1
  55:      1079.70 cm**-1
  56:      1106.75 cm**-1
  57:      1114.96 cm**-1
  58:      1126.03 cm**-1
  59:      1130.08 cm**-1
  60:      1172.32 cm**-1
  61:      1173.38 cm**-1
  62:      1194.46 cm**-1
  63:      1206.47 cm**-1
  64:      1247.79 cm**-1
  65:      1255.74 cm**-1
  66:      1275.10 cm**-1
  67:      1278.51 cm**-1
  68:      1327.75 cm**-1
  69:      1362.33 cm**-1
  70:      1376.52 cm**-1
  71:      1405.29 cm**-1
  72:      1412.71 cm**-1
  73:      1428.76 cm**-1
  74:      1439.35 cm**-1
  75:      1443.01 cm**-1
  76:      1456.48 cm**-1
  77:      1463.11 cm**-1
  78:      1476.52 cm**-1
  79:      1484.83 cm**-1
  80:      1489.33 cm**-1
  81:      1501.65 cm**-1
  82:      1506.21 cm**-1
  83:      1522.28 cm**-1
  84:      1544.19 cm**-1
  85:      1548.69 cm**-1
  86:      1561.36 cm**-1
  87:      1723.41 cm**-1
  88:      3037.02 cm**-1
  89:      3045.80 cm**-1
  90:      3087.78 cm**-1
  91:      3091.27 cm**-1
  92:      3146.55 cm**-1
  93:      3171.95 cm**-1
  94:      3173.98 cm**-1
  95:      3182.67 cm**-1
  96:      3187.28 cm**-1
  97:      3190.08 cm**-1
  98:      3192.53 cm**-1
  99:      3196.17 cm**-1
 100:      3205.51 cm**-1
 101:      3222.62 cm**-1

IR SPECTRUM
-----------

 Mode   freq       eps      Int      T**2         TX        TY        TZ
       cm**-1   L/(mol*cm) km/mol    a.u.
----------------------------------------------------------------------------
  6:     24.65   0.000727    3.67  0.009202  ( 0.018489  0.060228 -0.072337)
  7:     34.42   0.001068    5.40  0.009681  (-0.076051 -0.061544 -0.010489)
  8:     42.23   0.000136    0.69  0.001004  ( 0.009413 -0.025624  0.016084)
  9:     54.89   0.000015    0.08  0.000085  ( 0.006159  0.005113 -0.004612)
 10:     76.05   0.000247    1.25  0.001012  ( 0.022682  0.013286  0.017908)
 11:     91.04   0.001557    7.87  0.005336  (-0.004511 -0.033266  0.064881)
 12:    103.96   0.000559    2.82  0.001677  ( 0.017883 -0.027419  0.024608)
 13:    126.14   0.000223    1.12  0.000551  (-0.018187 -0.012293  0.008287)
 14:    182.04   0.000767    3.87  0.001314  (-0.021643  0.010318  0.027194)
 15:    197.89   0.000845    4.27  0.001332  (-0.007337  0.013800 -0.032978)
 16:    208.42   0.003029   15.31  0.004535  (-0.047612  0.047601  0.001526)
 17:    234.99   0.000318    1.61  0.000422  ( 0.018492  0.008819 -0.001549)
 18:    242.90   0.001530    7.73  0.001965  (-0.006622 -0.043778 -0.002233)
 19:    261.71   0.000268    1.36  0.000320  (-0.004365 -0.017062 -0.003158)
 20:    344.98   0.002410   12.18  0.002180  (-0.034402  0.025200  0.019018)
 21:    357.58   0.000238    1.20  0.000207  ( 0.006282 -0.011743 -0.005474)
 22:    383.99   0.001766    8.92  0.001435  ( 0.028475 -0.017430 -0.017897)
 23:    402.06   0.001116    5.64  0.000866  ( 0.014043 -0.021031 -0.015057)
 24:    448.16   0.001450    7.33  0.001010  ( 0.029363 -0.007745  0.009367)
 25:    460.12   0.000098    0.50  0.000066  (-0.001496 -0.003125 -0.007379)
 26:    472.59   0.002018   10.20  0.001333  ( 0.028550 -0.018287  0.013539)
 27:    494.02   0.002711   13.70  0.001713  (-0.029313  0.021961  0.019260)
 28:    505.15   0.000658    3.33  0.000407  ( 0.011309  0.016139 -0.004286)
 29:    524.54   0.001696    8.57  0.001009  (-0.028888  0.006015  0.011773)
 30:    537.77   0.001188    6.01  0.000690  (-0.024064 -0.008041 -0.006770)
 31:    587.39   0.001463    7.39  0.000777  ( 0.027615  0.002451 -0.002962)
 32:    603.51   0.000938    4.74  0.000485  (-0.009334 -0.019073  0.005827)
 33:    624.14   0.004156   21.00  0.002078  (-0.002277  0.007450  0.044914)
 34:    675.58   0.015358   77.61  0.007094  (-0.009834 -0.046530  0.069516)
 35:    685.06   0.010080   50.94  0.004592  ( 0.033340 -0.051576  0.028638)
 36:    691.02   0.003376   17.06  0.001525  ( 0.020292 -0.016463 -0.029013)
 37:    708.85   0.002192   11.08  0.000965  (-0.006441  0.014316  0.026809)
 38:    739.83   0.009095   45.96  0.003836  ( 0.049805  0.025603 -0.026462)
 39:    751.07   0.004468   22.58  0.001856  ( 0.022809 -0.015789 -0.032967)
 40:    795.76   0.015462   78.14  0.006063  (-0.032820  0.004030  0.070499)
 41:    807.92   0.007500   37.90  0.002897  ( 0.013856 -0.021247  0.047469)
 42:    818.58   0.002854   14.42  0.001088  (-0.022239 -0.000870  0.024347)
 43:    836.12   0.011725   59.25  0.004376  ( 0.039940 -0.046319  0.025209)
 44:    836.62   0.001002    5.07  0.000374  (-0.008328  0.013591  0.010947)
 45:    843.56   0.002779   14.04  0.001028  (-0.016814 -0.026541 -0.006391)
 46:    891.84   0.000940    4.75  0.000329  (-0.008466 -0.010577  0.012053)
 47:    913.57   0.000280    1.41  0.000096  ( 0.001858  0.000294  0.009595)
 48:    922.28   0.000005    0.03  0.000002  (-0.001135 -0.000361 -0.000521)
 49:    942.84   0.001327    6.70  0.000439  ( 0.004405 -0.016612  0.011988)
 50:    970.58   0.013075   66.08  0.004204  (-0.058905  0.026647 -0.004913)
 51:    990.63   0.014044   70.97  0.004424  (-0.051754  0.038868  0.015329)
 52:   1019.87   0.029181  147.47  0.008929  (-0.057593  0.069989  0.026715)
 53:   1071.85   0.010012   50.60  0.002915  (-0.053483  0.006944 -0.002544)
 54:   1073.95   0.008621   43.57  0.002505  (-0.029169  0.039837  0.008205)
 55:   1079.70   0.024866  125.66  0.007187  ( 0.020594 -0.069205 -0.044425)
 56:   1106.75   0.046284  233.90  0.013050  ( 0.100364 -0.034830 -0.042004)
 57:   1114.96   0.176198  890.43  0.049316  (-0.143909  0.126891  0.111823)
 58:   1126.03   0.001025    5.18  0.000284  (-0.012564  0.010451  0.004109)
 59:   1130.08   0.000292    1.48  0.000081  ( 0.005098 -0.000264  0.007396)
 60:   1172.32   0.001171    5.92  0.000312  ( 0.013182 -0.008517 -0.008091)
 61:   1173.38   0.000781    3.94  0.000208  ( 0.007670 -0.012177  0.000717)
 62:   1194.46   0.025013  126.41  0.006535  ( 0.065208 -0.037165 -0.030026)
 63:   1206.47   0.004935   24.94  0.001276  ( 0.015916  0.031693  0.004311)
 64:   1247.79   0.037344  188.72  0.009339  ( 0.079769 -0.050636 -0.020305)
 65:   1255.74   0.000405    2.05  0.000101  ( 0.008684 -0.004204 -0.002746)
 66:   1275.10   0.001181    5.97  0.000289  (-0.012114 -0.005729  0.010458)
 67:   1278.51   0.005997   30.30  0.001464  ( 0.011040 -0.030575 -0.020172)
 68:   1327.75   0.015037   75.99  0.003534  (-0.034669  0.040802  0.025836)
 69:   1362.33   0.007089   35.82  0.001624  ( 0.032477  0.023085  0.006010)
 70:   1376.52   0.002033   10.27  0.000461  ( 0.018161  0.009867  0.005798)
 71:   1405.29   0.008075   40.81  0.001793  (-0.026077  0.026839  0.019820)
 72:   1412.71   0.044993  227.38  0.009939  (-0.074963  0.050335  0.042258)
 73:   1428.76   0.001605    8.11  0.000350  ( 0.013144  0.011853  0.006098)
 74:   1439.35   0.002837   14.34  0.000615  ( 0.004653 -0.002502  0.024233)
 75:   1443.01   0.000560    2.83  0.000121  (-0.005097 -0.009026 -0.003693)
 76:   1456.48   0.012336   62.34  0.002643  (-0.045672  0.023319 -0.003651)
 77:   1463.11   0.004598   23.24  0.000981  (-0.001693 -0.004146 -0.030994)
 78:   1476.52   0.000166    0.84  0.000035  (-0.003886  0.000595  0.004429)
 79:   1484.83   0.006383   32.26  0.001341  ( 0.022525  0.027428 -0.009044)
 80:   1489.33   0.002395   12.10  0.000502  (-0.014057  0.010228 -0.014125)
 81:   1501.65   0.001353    6.84  0.000281  ( 0.016553 -0.001002  0.002481)
 82:   1506.21   0.000906    4.58  0.000188  (-0.013310 -0.002679  0.001815)
 83:   1522.28   0.021588  109.09  0.004425  (-0.055919  0.035998  0.001631)
 84:   1544.19   0.002114   10.68  0.000427  ( 0.002194 -0.019074 -0.007651)
 85:   1548.69   0.003856   19.49  0.000777  (-0.027345 -0.002186  0.004956)
 86:   1561.36   0.004552   23.00  0.000910  (-0.002921 -0.022303 -0.020095)
 87:   1723.41   0.201524  1018.42  0.036491  (-0.018464 -0.026842 -0.188226)
 88:   3037.02   0.008907   45.01  0.000915  (-0.008428 -0.005025 -0.028617)
 89:   3045.80   0.016181   81.77  0.001658  ( 0.020089 -0.026869 -0.023072)
 90:   3087.78   0.012893   65.16  0.001303  (-0.025502 -0.022957  0.011210)
 91:   3091.27   0.001588    8.03  0.000160  (-0.010538 -0.006527  0.002586)
 92:   3146.55   0.004676   23.63  0.000464  ( 0.003640 -0.019556 -0.008250)
 93:   3171.95   0.000564    2.85  0.000055  (-0.003539  0.002252 -0.006156)
 94:   3173.98   0.000723    3.65  0.000071  (-0.007051  0.003869  0.002527)
 95:   3182.67   0.001723    8.71  0.000169  (-0.003841  0.011160  0.005448)
 96:   3187.28   0.000224    1.13  0.000022  (-0.000901  0.004211  0.001839)
 97:   3190.08   0.000928    4.69  0.000091  ( 0.006546 -0.006915  0.000264)
 98:   3192.53   0.002893   14.62  0.000283  (-0.009201  0.012156  0.007098)
 99:   3196.17   0.002860   14.45  0.000279  (-0.014353 -0.008117 -0.002709)
100:   3205.51   0.003688   18.64  0.000359  ( 0.005208  0.015733  0.009185)
101:   3222.62   0.000550    2.78  0.000053  (-0.006793  0.000211  0.002657)

--------------------------
THERMOCHEMISTRY AT 298.15K
--------------------------

Temperature         ... 298.15 K
Pressure            ... 1.00 atm
Total Mass          ... 266.30 AMU

Throughout the following assumptions are being made:
  (1) The electronic state is orbitally nondegenerate
  (2) There are no thermally accessible electronically excited states
  (3) Hindered rotations indicated by low frequency modes are not
      treated as such but are treated as vibrations and this may
      cause some error
  (4) All equations used are the standard statistical mechanics
      equations for an ideal gas
  (5) All vibrations are strictly harmonic

freq.      24.65  E(vib)   ...       0.56
freq.      34.42  E(vib)   ...       0.54
freq.      42.23  E(vib)   ...       0.53
freq.      54.89  E(vib)   ...       0.52
freq.      76.05  E(vib)   ...       0.49
freq.      91.04  E(vib)   ...       0.47
freq.     103.96  E(vib)   ...       0.46
freq.     126.14  E(vib)   ...       0.43
freq.     182.04  E(vib)   ...       0.37
freq.     197.89  E(vib)   ...       0.35
freq.     208.42  E(vib)   ...       0.34
freq.     234.99  E(vib)   ...       0.32
freq.     242.90  E(vib)   ...       0.31
freq.     261.71  E(vib)   ...       0.30
freq.     344.98  E(vib)   ...       0.23
freq.     357.58  E(vib)   ...       0.22
freq.     383.99  E(vib)   ...       0.20
freq.     402.06  E(vib)   ...       0.19
freq.     448.16  E(vib)   ...       0.17
freq.     460.12  E(vib)   ...       0.16
freq.     472.59  E(vib)   ...       0.15
freq.     494.02  E(vib)   ...       0.14
freq.     505.15  E(vib)   ...       0.14
freq.     524.54  E(vib)   ...       0.13
freq.     537.77  E(vib)   ...       0.12
freq.     587.39  E(vib)   ...       0.10
freq.     603.51  E(vib)   ...       0.10
freq.     624.14  E(vib)   ...       0.09
freq.     675.58  E(vib)   ...       0.08
freq.     685.06  E(vib)   ...       0.07
freq.     691.02  E(vib)   ...       0.07
freq.     708.85  E(vib)   ...       0.07
freq.     739.83  E(vib)   ...       0.06
freq.     751.07  E(vib)   ...       0.06
freq.     795.76  E(vib)   ...       0.05
freq.     807.92  E(vib)   ...       0.05
freq.     818.58  E(vib)   ...       0.05
freq.     836.12  E(vib)   ...       0.04
freq.     836.62  E(vib)   ...       0.04
freq.     843.56  E(vib)   ...       0.04
freq.     891.84  E(vib)   ...       0.03
freq.     913.57  E(vib)   ...       0.03
freq.     922.28  E(vib)   ...       0.03
freq.     942.84  E(vib)   ...       0.03
freq.     970.58  E(vib)   ...       0.03
freq.     990.63  E(vib)   ...       0.02
freq.    1019.87  E(vib)   ...       0.02
freq.    1071.85  E(vib)   ...       0.02
freq.    1073.95  E(vib)   ...       0.02
freq.    1079.70  E(vib)   ...       0.02
freq.    1106.75  E(vib)   ...       0.02
freq.    1114.96  E(vib)   ...       0.01
freq.    1126.03  E(vib)   ...       0.01
freq.    1130.08  E(vib)   ...       0.01
freq.    1172.32  E(vib)   ...       0.01
freq.    1173.38  E(vib)   ...       0.01
freq.    1194.46  E(vib)   ...       0.01
freq.    1206.47  E(vib)   ...       0.01
freq.    1247.79  E(vib)   ...       0.01
freq.    1255.74  E(vib)   ...       0.01
freq.    1275.10  E(vib)   ...       0.01
freq.    1278.51  E(vib)   ...       0.01
freq.    1327.75  E(vib)   ...       0.01
freq.    1362.33  E(vib)   ...       0.01
freq.    1376.52  E(vib)   ...       0.01
freq.    1405.29  E(vib)   ...       0.00
freq.    1412.71  E(vib)   ...       0.00
freq.    1428.76  E(vib)   ...       0.00
freq.    1439.35  E(vib)   ...       0.00
freq.    1443.01  E(vib)   ...       0.00
freq.    1456.48  E(vib)   ...       0.00
freq.    1463.11  E(vib)   ...       0.00
freq.    1476.52  E(vib)   ...       0.00
freq.    1484.83  E(vib)   ...       0.00
freq.    1489.33  E(vib)   ...       0.00
freq.    1501.65  E(vib)   ...       0.00
freq.    1506.21  E(vib)   ...       0.00
freq.    1522.28  E(vib)   ...       0.00
freq.    1544.19  E(vib)   ...       0.00
freq.    1548.69  E(vib)   ...       0.00
freq.    1561.36  E(vib)   ...       0.00
freq.    1723.41  E(vib)   ...       0.00
freq.    3037.02  E(vib)   ...       0.00
freq.    3045.80  E(vib)   ...       0.00
freq.    3087.78  E(vib)   ...       0.00
freq.    3091.27  E(vib)   ...       0.00
freq.    3146.55  E(vib)   ...       0.00
freq.    3171.95  E(vib)   ...       0.00
freq.    3173.98  E(vib)   ...       0.00
freq.    3182.67  E(vib)   ...       0.00
freq.    3187.28  E(vib)   ...       0.00
freq.    3190.08  E(vib)   ...       0.00
freq.    3192.53  E(vib)   ...       0.00
freq.    3196.17  E(vib)   ...       0.00
freq.    3205.51  E(vib)   ...       0.00
freq.    3222.62  E(vib)   ...       0.00

------------
INNER ENERGY
------------

The inner energy is: U= E(el) + E(ZPE) + E(vib) + E(rot) + E(trans)
    E(el)   - is the total energy from the electronic structure calculation
              = E(kin-el) + E(nuc-el) + E(el-el) + E(nuc-nuc)
    E(ZPE)  - the the zero temperature vibrational energy from the frequency calculation
    E(vib)  - the the finite temperature correction to E(ZPE) due to population
              of excited vibrational states
    E(rot)  - is the rotational thermal energy
    E(trans)- is the translational thermal energy

Summary of contributions to the inner energy U:
Electronic energy                ...   -878.30219701 Eh
Zero point energy                ...      0.26331285 Eh     165.23 kcal/mol
Thermal vibrational correction   ...      0.01482016 Eh       9.30 kcal/mol
Thermal rotational correction    ...      0.00141627 Eh       0.89 kcal/mol
Thermal translational correction ...      0.00141627 Eh       0.89 kcal/mol
-----------------------------------------------------------------------
Total thermal energy                   -878.02123145 Eh

Summary of corrections to the electronic energy:
(perhaps to be used in another calculation)
Total thermal correction                  0.01765270 Eh      11.08 kcal/mol
Non-thermal (ZPE) correction              0.26331285 Eh     165.23 kcal/mol
-----------------------------------------------------------------------
Total correction                          0.28096556 Eh     176.31 kcal/mol

--------
ENTHALPY
--------

The enthalpy is H = U + kB*T
                kB is Boltzmann's constant
Total free energy                 ...   -878.02123145 Eh
Thermal Enthalpy correction       ...      0.00094421 Eh       0.59 kcal/mol
-----------------------------------------------------------------------
Total Enthalpy                    ...   -878.02028724 Eh

Note: Only C1 symmetry has been detected, increase convergence thresholds
      if your molecule has a higher symmetry. Symmetry factor of 1.0 is
      used for the rotational entropy correction.

Rotational constants in cm-1:     0.017022     0.009418     0.006473

                             ****ORCA TERMINATED NORMALLY****
TOTAL RUN TIME: 2 days 3 hours 29 minutes 3 seconds 980 msec
