                         Program Version 6.0.1  -  RELEASE   -
|  1> ! B3LYP/G OPT FREQ 6-311G* CPCM(Water)
|  2>
|  3> * xyz 0 1
|  4> C  -3.30833244167234674649 -0.50976188362532282028 -0.47396075371457857539
|  5> C  -2.89215734536825364032 -1.41394708503931587629 -1.44925812118844232756
|  6> C  -1.55645628480307718355 -1.56130744600487503249 -1.71795118951881509162
|  7> C  -2.38539607305379863789 0.23780283363736953728 0.22377897843805333311
|  8> C  -1.00226781129143738269 0.11104210808988890236 -0.02629742307485194441
|  9> O  -2.82203863507119612208 1.10391401734429139836 1.21417761426469139607
| 10> C  -0.59608237279585718493 -0.81001354223641497398 -1.02228383353081975216
| 11> C  0.78826136893190978938 -0.96003258822461523536 -1.32705942270057475341
| 12> C  1.73237675699186244316 -0.22992000390779621100 -0.69257812070577984276
| 13> C  0.00438045195577774216 0.87705234068972837136 0.66509187809262870772
| 14> C  1.36740510500448930742 0.70537921962538252529 0.31431073484765931214
| 15> N  -0.36341684295764498103 1.73725143679689564280 1.62616955039430766128
| 16> C  0.55316531741674213052 2.44299772968971895537 2.24213723255871988371
| 17> C  1.91997143645514345422 2.35826902322869180750 1.96383697947980850884
| 18> C  2.32501381530748263415 1.47650264645202433655 0.99260464300270689897
| 19> C  -3.62209265000685265434 2.13916573009666510785 0.85713313944437641290
| 20> O  -3.98369758808850571441 2.33866191412041413145 -0.29572720963743870382
| 21> N  -3.94986438010603713167 2.90536212782469771554 1.89990198614038741098
| 22> C  -3.47195532038162912869 2.66040432172373275677 3.24358337079321357166
| 23> C  -4.85465592440695203891 4.02037507399636862004 1.73068169958727757773
| 24> H  -5.16291927388523674836 4.06580539764998505348 0.68840218687148202470
| 25> H  -4.35378944544106083470 4.95037919152647631904 2.00090041480682501174
| 26> H  -5.73029218604823320504 3.88312559349846386780 2.36578528188660497378
| 27> H  -4.21359506803003824871 2.10259646943200939617 3.81827610351842805514
| 28> H  -3.29268986456309953326 3.61977149516099583337 3.72484842443340369300
| 29> H  -2.54504114576996354202 2.09523091383374548968 3.20097317822690241584
| 30> H  -1.22327890654325988073 -2.25481307279635290186 -2.47433605229898923028
| 31> H  -4.35814476602702249863 -0.37640121933426384793 -0.26114316663269365737
| 32> H  -3.62992009456058717376 -1.98921510848638760649 -1.98540021169623948083
| 33> H  1.06034285129267624725 -1.67362401510262825965 -2.08950470735319093762
| 34> H  2.77984082129880016865 -0.33854244302704161740 -0.93100825822830313161
| 35> H  0.18156989441341031544 3.11502784862853676628 3.00438686652380093633
| 36> H  2.62508952998380840071 2.96789187627734118990 2.50507017488828065410
| 37> H  3.36881705652798446593 1.36140909118569197744 0.73883800523316489617
| 38> *
| 39>
| 40>                          ****END OF INPUT****
 Total Charge           Charge          ....    0
 Multiplicity           Mult            ....    1
 Number of Electrons    NEL             ....  140
FINAL SINGLE POINT ENERGY      -878.322243396396
FINAL SINGLE POINT ENERGY      -878.326599592384
FINAL SINGLE POINT ENERGY      -878.327458249639
FINAL SINGLE POINT ENERGY      -878.328353174149
FINAL SINGLE POINT ENERGY      -878.328763308510
FINAL SINGLE POINT ENERGY      -878.329228767687
FINAL SINGLE POINT ENERGY      -878.329355454399
FINAL SINGLE POINT ENERGY      -878.329417995955
FINAL SINGLE POINT ENERGY      -878.329442559845
FINAL SINGLE POINT ENERGY      -878.329450523287
FINAL SINGLE POINT ENERGY      -878.329452198225
FINAL SINGLE POINT ENERGY      -878.329454306303
FINAL SINGLE POINT ENERGY      -878.329455520534
FINAL SINGLE POINT ENERGY      -878.329457619869
FINAL SINGLE POINT ENERGY      -878.329458452339
FINAL SINGLE POINT ENERGY      -878.329458810093
                    ***********************HURRAY********************

CARTESIAN COORDINATES (ANGSTROEM)
---------------------------------
  C     -3.356983   -0.764864   -0.418676
  C     -2.885138   -1.682108   -1.367679
  C     -1.539912   -1.721668   -1.661113
  C     -2.490184    0.097541    0.223002
  C     -1.094361    0.094796   -0.046277
  O     -3.060137    0.896239    1.208227
  C     -0.633262   -0.852545   -1.015074
  C      0.763846   -0.933622   -1.334980
  C      1.676514   -0.131625   -0.733384
  C     -0.111162    0.963690    0.592125
  C      1.264649    0.831689    0.241899
  N     -0.513999    1.879799    1.505484
  C      0.389674    2.656947    2.081730
  C      1.765541    2.596357    1.806500
  C      2.197990    1.676537    0.877478
  C     -3.311116    2.213987    0.901904
  O     -3.174983    2.658960   -0.224431
  N     -3.747109    2.897903    1.982430
  C     -3.937622    2.305832    3.302881
  C     -4.219130    4.267063    1.815277
  H     -3.988561    4.609521    0.811003
  H     -3.727433    4.919999    2.540880
  H     -5.301090    4.323893    1.974452
  H     -4.991844    2.064337    3.477485
  H     -3.618899    3.024294    4.061209
  H     -3.344273    1.403371    3.403672
  H     -1.155184   -2.427119   -2.390128
  H     -4.410070   -0.718076   -0.165471
  H     -3.579879   -2.351875   -1.862474
  H      1.074698   -1.663630   -2.075359
  H      2.731206   -0.204277   -0.979706
  H      0.011172    3.375612    2.804830
  H      2.455340    3.261216    2.313542
  H      3.249851    1.589664    0.623123

 Multiplicity           Mult            ....    1
 Number of Electrons    NEL             ....  140
 Basis Dimension        Dim             ....  402

ORBITAL ENERGIES
----------------

  NO   OCC          E(Eh)            E(eV)
   0   2.0000     -19.164991      -521.5059
   1   2.0000     -19.089389      -519.4487
   2   2.0000     -14.345035      -390.3483
   3   2.0000     -14.313634      -389.4938
   4   2.0000     -10.319436      -280.8061
   5   2.0000     -10.247607      -278.8516
   6   2.0000     -10.226694      -278.2825
   7   2.0000     -10.212350      -277.8922
   8   2.0000     -10.201907      -277.6080
   9   2.0000     -10.198637      -277.5190
  10   2.0000     -10.197251      -277.4813
  11   2.0000     -10.194642      -277.4103
  12   2.0000     -10.193867      -277.3892
  13   2.0000     -10.193625      -277.3826
  14   2.0000     -10.183957      -277.1196
  15   2.0000     -10.183794      -277.1151
  16   2.0000     -10.183751      -277.1140
  17   2.0000     -10.183094      -277.0961
  18   2.0000     -10.181485      -277.0523
  19   2.0000     -10.180668      -277.0301
  20   2.0000      -1.114430       -30.3252
  21   2.0000      -1.021773       -27.8039
  22   2.0000      -0.955705       -26.0061
  23   2.0000      -0.944902       -25.7121
  24   2.0000      -0.881207       -23.9789
  25   2.0000      -0.839427       -22.8420
  26   2.0000      -0.808215       -21.9927
  27   2.0000      -0.783699       -21.3255
  28   2.0000      -0.752435       -20.4748
  29   2.0000      -0.744969       -20.2716
  30   2.0000      -0.721706       -19.6386
  31   2.0000      -0.705771       -19.2050
  32   2.0000      -0.656203       -17.8562
  33   2.0000      -0.649155       -17.6644
  34   2.0000      -0.631919       -17.1954
  35   2.0000      -0.619464       -16.8565
  36   2.0000      -0.574764       -15.6401
  37   2.0000      -0.548104       -14.9147
  38   2.0000      -0.536451       -14.5976
  39   2.0000      -0.531071       -14.4512
  40   2.0000      -0.516049       -14.0424
  41   2.0000      -0.495466       -13.4823
  42   2.0000      -0.492196       -13.3933
  43   2.0000      -0.484016       -13.1707
  44   2.0000      -0.479392       -13.0449
  45   2.0000      -0.466433       -12.6923
  46   2.0000      -0.446217       -12.1422
  47   2.0000      -0.444138       -12.0856
  48   2.0000      -0.435756       -11.8575
  49   2.0000      -0.430427       -11.7125
  50   2.0000      -0.418895       -11.3987
  51   2.0000      -0.414057       -11.2671
  52   2.0000      -0.408325       -11.1111
  53   2.0000      -0.407142       -11.0789
  54   2.0000      -0.405371       -11.0307
  55   2.0000      -0.401568       -10.9272
  56   2.0000      -0.386539       -10.5182
  57   2.0000      -0.385265       -10.4836
  58   2.0000      -0.376715       -10.2509
  59   2.0000      -0.364174        -9.9097
  60   2.0000      -0.356715        -9.7067
  61   2.0000      -0.336972        -9.1695
  62   2.0000      -0.317521        -8.6402
  63   2.0000      -0.306584        -8.3426
  64   2.0000      -0.287895        -7.8340
  65   2.0000      -0.281127        -7.6498
  66   2.0000      -0.262229        -7.1356
  67   2.0000      -0.249610        -6.7922
  68   2.0000      -0.248744        -6.7687
  69   2.0000      -0.229600        -6.2477
  70   0.0000      -0.061979        -1.6865
  71   0.0000      -0.053805        -1.4641
  72   0.0000      -0.014926        -0.4062
  73   0.0000       0.012223         0.3326
  74   0.0000       0.041052         1.1171

MULLIKEN ATOMIC CHARGES
-----------------------
   0 C :   -0.213658
   1 C :   -0.220084
   2 C :   -0.221253
   3 C :    0.204379
   4 C :    0.034434
   5 O :   -0.386240
   6 C :    0.001268
   7 C :   -0.225919
   8 C :   -0.230819
   9 C :    0.123605
  10 C :   -0.013044
  11 N :   -0.376749
  12 C :   -0.045513
  13 C :   -0.298556
  14 C :   -0.100466
  15 C :    0.566123
  16 O :   -0.456622
  17 N :   -0.343012
  18 C :   -0.515956
  19 C :   -0.523847
  20 H :    0.234447
  21 H :    0.235963
  22 H :    0.231150
  23 H :    0.230333
  24 H :    0.234076
  25 H :    0.241224
  26 H :    0.228216
  27 H :    0.227999
  28 H :    0.228082
  29 H :    0.230086
  30 H :    0.228724
  31 H :    0.223918
  32 H :    0.230534
  33 H :    0.237177
Sum of atomic charges:    0.0000000

LOEWDIN ATOMIC CHARGES
----------------------
   0 C :   -0.114347
   1 C :   -0.102158
   2 C :   -0.101502
   3 C :   -0.008509
   4 C :   -0.036965
   5 O :    0.048843
   6 C :   -0.029152
   7 C :   -0.093050
   8 C :   -0.098087
   9 C :   -0.032277
  10 C :   -0.048874
  11 N :   -0.016618
  12 C :   -0.099737
  13 C :   -0.128665
  14 C :   -0.060852
  15 C :   -0.111856
  16 O :   -0.192775
  17 N :    0.030815
  18 C :   -0.242340
  19 C :   -0.240301
  20 H :    0.117091
  21 H :    0.114568
  22 H :    0.111855
  23 H :    0.110450
  24 H :    0.115930
  25 H :    0.116691
  26 H :    0.124102
  27 H :    0.124729
  28 H :    0.124542
  29 H :    0.125758
  30 H :    0.125483
  31 H :    0.110664
  32 H :    0.127736
  33 H :    0.128806

  Mayer bond orders larger than 0.100000
B(  0-C ,  1-C ) :   1.3457 B(  0-C ,  3-C ) :   1.5000 B(  0-C , 27-H ) :   0.9209
B(  1-C ,  2-C ) :   1.5085 B(  1-C , 28-H ) :   0.9270 B(  2-C ,  6-C ) :   1.3187
B(  2-C , 26-H ) :   0.9230 B(  3-C ,  4-C ) :   1.2549 B(  3-C ,  5-O ) :   0.9111
B(  4-C ,  6-C ) :   1.3369 B(  4-C ,  9-C ) :   1.1918 B(  5-O , 15-C ) :   1.0171
B(  6-C ,  7-C ) :   1.1995 B(  7-C ,  8-C ) :   1.6578 B(  7-C , 29-H ) :   0.9206
B(  8-C , 10-C ) :   1.1871 B(  8-C , 30-H ) :   0.9238 B(  9-C , 10-C ) :   1.2385
B(  9-C , 11-N ) :   1.4547 B( 10-C , 14-C ) :   1.3096 B( 11-N , 12-C ) :   1.5646
B( 12-C , 13-C ) :   1.3205 B( 12-C , 31-H ) :   0.9277 B( 13-C , 14-C ) :   1.4955
B( 13-C , 32-H ) :   0.9220 B( 14-C , 33-H ) :   0.9253 B( 15-C , 16-O ) :   1.8956
B( 15-C , 17-N ) :   1.2072 B( 17-N , 18-C ) :   0.9498 B( 17-N , 19-C ) :   0.9615
B( 18-C , 23-H ) :   0.9179 B( 18-C , 24-H ) :   0.9204 B( 18-C , 25-H ) :   0.9153
B( 19-C , 20-H ) :   0.9154 B( 19-C , 21-H ) :   0.9203 B( 19-C , 22-H ) :   0.9195

FINAL SINGLE POINT ENERGY      -878.329459041785

DIPOLE MOMENT
-------------

Method             : SCF
Type of density    : Electron Density
Multiplicity       :   1
Irrep              :   0
Energy             :  -878.3294590417850713 Eh
Relativity type    :
Basis              : AO
                                X                 Y                 Z
Electronic contribution:      5.707955580      -6.153590078      -5.595208574
Nuclear contribution   :     -4.852300450       5.888280807       6.622280146
                        -----------------------------------------
Total Dipole Moment    :      0.855655131      -0.265309271       1.027071572
                        -----------------------------------------
Magnitude (a.u.)       :      1.362868566
Magnitude (Debye)      :      3.464136594

VIBRATIONAL FREQUENCIES
-----------------------

Scaling factor for frequencies =  1.000000000  (already applied!)

     0:       0.00 cm**-1
     1:       0.00 cm**-1
     2:       0.00 cm**-1
     3:       0.00 cm**-1
     4:       0.00 cm**-1
     5:       0.00 cm**-1
     6:      33.83 cm**-1
     7:      34.66 cm**-1
     8:      50.77 cm**-1
     9:      64.51 cm**-1
    10:      91.86 cm**-1
    11:      98.89 cm**-1
    12:     114.12 cm**-1
    13:     129.66 cm**-1
    14:     203.11 cm**-1
    15:     216.02 cm**-1
    16:     229.45 cm**-1
    17:     233.29 cm**-1
    18:     244.27 cm**-1
    19:     296.51 cm**-1
    20:     365.18 cm**-1
    21:     377.71 cm**-1
    22:     409.81 cm**-1
    23:     420.80 cm**-1
    24:     464.05 cm**-1
    25:     488.86 cm**-1
    26:     509.70 cm**-1
    27:     519.34 cm**-1
    28:     524.94 cm**-1
    29:     561.28 cm**-1
    30:     582.04 cm**-1
    31:     607.19 cm**-1
    32:     623.15 cm**-1
    33:     659.17 cm**-1
    34:     701.57 cm**-1
    35:     729.84 cm**-1
    36:     736.19 cm**-1
    37:     740.27 cm**-1
    38:     773.26 cm**-1
    39:     800.89 cm**-1
    40:     823.83 cm**-1
    41:     833.36 cm**-1
    42:     853.96 cm**-1
    43:     868.33 cm**-1
    44:     870.50 cm**-1
    45:     922.28 cm**-1
    46:     965.47 cm**-1
    47:     979.55 cm**-1
    48:     987.97 cm**-1
    49:     994.21 cm**-1
    50:    1000.85 cm**-1
    51:    1029.01 cm**-1
    52:    1046.48 cm**-1
    53:    1082.42 cm**-1
    54:    1084.40 cm**-1
    55:    1107.96 cm**-1
    56:    1133.37 cm**-1
    57:    1148.07 cm**-1
    58:    1160.12 cm**-1
    59:    1172.44 cm**-1
    60:    1181.47 cm**-1
    61:    1188.12 cm**-1
    62:    1220.83 cm**-1
    63:    1225.81 cm**-1
    64:    1258.10 cm**-1
    65:    1272.16 cm**-1
    66:    1286.25 cm**-1
    67:    1324.31 cm**-1
    68:    1342.59 cm**-1
    69:    1355.88 cm**-1
    70:    1411.95 cm**-1
    71:    1420.16 cm**-1
    72:    1446.25 cm**-1
    73:    1452.69 cm**-1
    74:    1457.12 cm**-1
    75:    1470.84 cm**-1
    76:    1477.76 cm**-1
    77:    1493.08 cm**-1
    78:    1501.06 cm**-1
    79:    1504.60 cm**-1
    80:    1531.49 cm**-1
    81:    1536.22 cm**-1
    82:    1548.43 cm**-1
    83:    1601.08 cm**-1
    84:    1633.14 cm**-1
    85:    1647.04 cm**-1
    86:    1661.62 cm**-1
    87:    1743.17 cm**-1
    88:    3023.29 cm**-1
    89:    3028.19 cm**-1
    90:    3078.82 cm**-1
    91:    3086.48 cm**-1
    92:    3150.63 cm**-1
    93:    3169.79 cm**-1
    94:    3173.72 cm**-1
    95:    3176.35 cm**-1
    96:    3176.92 cm**-1
    97:    3183.07 cm**-1
    98:    3186.55 cm**-1
    99:    3189.51 cm**-1
   100:    3201.04 cm**-1
   101:    3201.31 cm**-1

IR SPECTRUM
-----------

 Mode   freq       eps      Int      T**2         TX        TY        TZ
       cm**-1   L/(mol*cm) km/mol    a.u.
----------------------------------------------------------------------------
  6:     33.83   0.000965    4.88  0.008903  ( 0.078960 -0.021100  0.047149)
  7:     34.66   0.000481    2.43  0.004335  ( 0.047587  0.041015  0.019715)
  8:     50.77   0.000200    1.01  0.001231  (-0.019185 -0.029207  0.003107)
  9:     64.51   0.000237    1.20  0.001146  ( 0.027966  0.015593  0.011002)
 10:     91.86   0.000288    1.45  0.000977  (-0.027742 -0.010325 -0.010029)
 11:     98.89   0.001904    9.62  0.006007  (-0.007041  0.058297 -0.050589)
 12:    114.12   0.000524    2.65  0.001432  (-0.029090  0.023695 -0.004980)
 13:    129.66   0.000392    1.98  0.000944  (-0.026123 -0.015215 -0.005453)
 14:    203.11   0.000166    0.84  0.000255  (-0.012891 -0.000496  0.009389)
 15:    216.02   0.000670    3.39  0.000969  (-0.029251 -0.008504 -0.006368)
 16:    229.45   0.000580    2.93  0.000789  (-0.018672  0.003188 -0.020738)
 17:    233.29   0.001173    5.93  0.001569  (-0.007604 -0.027866  0.027105)
 18:    244.27   0.000764    3.86  0.000977  ( 0.001786 -0.016150 -0.026695)
 19:    296.51   0.000161    0.81  0.000169  (-0.001221 -0.007555  0.010517)
 20:    365.18   0.003506   17.72  0.002996  (-0.020297  0.045702  0.022259)
 21:    377.71   0.001115    5.63  0.000921  ( 0.014408 -0.026373 -0.004206)
 22:    409.81   0.000800    4.04  0.000609  ( 0.011512 -0.010616 -0.019086)
 23:    420.80   0.000034    0.17  0.000025  ( 0.002791 -0.003558 -0.002195)
 24:    464.05   0.001856    9.38  0.001248  (-0.015865  0.023814 -0.020728)
 25:    488.86   0.000147    0.74  0.000094  ( 0.003409 -0.004594 -0.007833)
 26:    509.70   0.000041    0.21  0.000025  ( 0.004334  0.001913 -0.001547)
 27:    519.34   0.000978    4.94  0.000588  (-0.002731  0.023631 -0.004656)
 28:    524.94   0.001001    5.06  0.000595  ( 0.022944  0.007811  0.002729)
 29:    561.28   0.001168    5.90  0.000649  ( 0.013417  0.014393  0.016187)
 30:    582.04   0.000257    1.30  0.000138  (-0.007531  0.000679  0.008984)
 31:    607.19   0.001850    9.35  0.000951  (-0.023255  0.002647  0.020078)
 32:    623.15   0.002468   12.47  0.001236  ( 0.030441  0.015249 -0.008771)
 33:    659.17   0.001467    7.42  0.000695  ( 0.015551  0.008795  0.019379)
 34:    701.57   0.000607    3.07  0.000270  (-0.012763  0.004363  0.009394)
 35:    729.84   0.001913    9.67  0.000818  ( 0.009207 -0.016010  0.021838)
 36:    736.19   0.013192   66.67  0.005592  (-0.018350 -0.065507  0.031047)
 37:    740.27   0.011492   58.08  0.004845  ( 0.059180  0.001172  0.036621)
 38:    773.26   0.004564   23.06  0.001842  ( 0.009204 -0.017670  0.038010)
 39:    800.89   0.000218    1.10  0.000085  ( 0.001735  0.008813 -0.002042)
 40:    823.83   0.003472   17.55  0.001315  ( 0.019185 -0.004642  0.030422)
 41:    833.36   0.004552   23.01  0.001705  (-0.025847 -0.002239  0.032118)
 42:    853.96   0.010866   54.91  0.003971  ( 0.006680 -0.039760  0.048427)
 43:    868.33   0.013138   66.39  0.004721  ( 0.020946 -0.057476  0.031293)
 44:    870.50   0.001201    6.07  0.000430  ( 0.006166  0.019807 -0.000237)
 45:    922.28   0.000637    3.22  0.000216  (-0.007370  0.011528  0.005331)
 46:    965.47   0.000115    0.58  0.000037  (-0.000401  0.004447 -0.004149)
 47:    979.55   0.000074    0.37  0.000024  ( 0.000567 -0.002414  0.004181)
 48:    987.97   0.000128    0.65  0.000040  ( 0.000190 -0.002491  0.005842)
 49:    994.21   0.005381   27.19  0.001689  (-0.023057 -0.002801  0.033903)
 50:   1000.85   0.000198    1.00  0.000062  ( 0.000740 -0.005411  0.005650)
 51:   1029.01   0.008916   45.06  0.002704  ( 0.043271 -0.028765 -0.001996)
 52:   1046.48   0.008365   42.27  0.002494  ( 0.024179 -0.043657 -0.001982)
 53:   1082.42   0.003782   19.11  0.001090  ( 0.008285 -0.031950  0.001031)
 54:   1084.40   0.001132    5.72  0.000326  ( 0.000557  0.009376 -0.015414)
 55:   1107.96   0.000611    3.09  0.000172  (-0.012759 -0.002658 -0.001469)
 56:   1133.37   0.000575    2.91  0.000158  ( 0.004411  0.003981 -0.011094)
 57:   1148.07   0.008260   41.74  0.002245  (-0.006237 -0.042133 -0.020763)
 58:   1160.12   0.183451  927.09  0.049347  (-0.101975  0.168021  0.103523)
 59:   1172.44   0.001664    8.41  0.000443  (-0.002768  0.015155  0.014336)
 60:   1181.47   0.021653  109.42  0.005719  (-0.040184  0.060726  0.020413)
 61:   1188.12   0.002163   10.93  0.000568  ( 0.011661 -0.020597 -0.002792)
 62:   1220.83   0.004077   20.60  0.001042  (-0.008366  0.026938  0.015701)
 63:   1225.81   0.008398   42.44  0.002138  (-0.022075  0.036315  0.018213)
 64:   1258.10   0.027821  140.60  0.006901  (-0.050543  0.060829  0.025418)
 65:   1272.16   0.004659   23.54  0.001143  (-0.013002  0.029547  0.010035)
 66:   1286.25   0.002953   14.93  0.000717  ( 0.003648  0.022668 -0.013762)
 67:   1324.31   0.003135   15.84  0.000739  ( 0.018784 -0.015426 -0.012164)
 68:   1342.59   0.006244   31.55  0.001451  (-0.021553  0.024909  0.019137)
 69:   1355.88   0.002035   10.28  0.000468  ( 0.015676 -0.011118 -0.009945)
 70:   1411.95   0.026145  132.13  0.005778  (-0.001047  0.063092  0.042389)
 71:   1420.16   0.042631  215.44  0.009368  (-0.057071  0.068776  0.037153)
 72:   1446.25   0.003643   18.41  0.000786  ( 0.006388  0.006459 -0.026525)
 73:   1452.69   0.002831   14.31  0.000608  (-0.004975 -0.020715 -0.012424)
 74:   1457.12   0.006068   30.67  0.001300  ( 0.001534  0.028851  0.021560)
 75:   1470.84   0.006665   33.68  0.001414  ( 0.018792 -0.030327  0.011886)
 76:   1477.76   0.003800   19.20  0.000802  ( 0.021178  0.010752 -0.015437)
 77:   1493.08   0.000550    2.78  0.000115  ( 0.000824 -0.001242 -0.010614)
 78:   1501.06   0.006615   33.43  0.001375  (-0.029052 -0.004193 -0.022662)
 79:   1504.60   0.003176   16.05  0.000659  (-0.003845 -0.022695  0.011356)
 80:   1531.49   0.001767    8.93  0.000360  ( 0.014546 -0.011231  0.004728)
 81:   1536.22   0.014082   71.16  0.002861  ( 0.014113 -0.050844 -0.008733)
 82:   1548.43   0.010128   51.18  0.002041  (-0.024956  0.032252  0.019448)
 83:   1601.08   0.007782   39.32  0.001517  ( 0.037433 -0.004686 -0.009669)
 84:   1633.14   0.010937   55.27  0.002090  (-0.008512 -0.033996 -0.029355)
 85:   1647.04   0.001206    6.10  0.000229  (-0.007638 -0.009043 -0.009405)
 86:   1661.62   0.004322   21.84  0.000812  ( 0.027525  0.007353 -0.000084)
 87:   1743.17   0.175676  887.79  0.031450  ( 0.040279  0.008932 -0.172475)
 88:   3023.29   0.008933   45.14  0.000922  (-0.008389 -0.021572  0.019656)
 89:   3028.19   0.025804  130.40  0.002659  ( 0.039251 -0.020509 -0.026419)
 90:   3078.82   0.014653   74.05  0.001485  (-0.028457 -0.019770 -0.016869)
 91:   3086.48   0.005905   29.84  0.000597  ( 0.014202  0.012303  0.015620)
 92:   3150.63   0.009622   48.62  0.000953  (-0.004240  0.021873  0.021368)
 93:   3169.79   0.000320    1.62  0.000032  ( 0.005189  0.001945  0.000915)
 94:   3173.72   0.001621    8.19  0.000159  (-0.002009 -0.004734  0.011532)
 95:   3176.35   0.001223    6.18  0.000120  (-0.009081  0.003414  0.005106)
 96:   3176.92   0.001598    8.07  0.000157  ( 0.011917 -0.001804 -0.003415)
 97:   3183.07   0.002633   13.31  0.000258  (-0.009603  0.012862  0.000706)
 98:   3186.55   0.005095   25.75  0.000499  ( 0.019144 -0.006556 -0.009460)
 99:   3189.51   0.009372   47.36  0.000917  ( 0.007959 -0.020749 -0.020568)
100:   3201.04   0.011023   55.71  0.001075  ( 0.023295  0.018748  0.013434)
101:   3201.31   0.000303    1.53  0.000029  ( 0.005174  0.001648 -0.000045)

--------------------------
THERMOCHEMISTRY AT 298.15K
--------------------------

Temperature         ...   298.15 K
Pressure            ...     1.00 atm
Total Mass          ...   266.30 AMU
Quasi RRHO          ...     True
Cut-Off Frequency   ...     1.00 cm^-1

Throughout the following assumptions are being made:
  (1) The electronic state is orbitally nondegenerate
  (2) There are no thermally accessible electronically excited states
  (3) Hindered rotations indicated by low frequency modes are not
      treated as such but are treated as vibrations and this may
      cause some error
  (4) All equations used are the standard statistical mechanics
      equations for an ideal gas
  (5) All vibrations are strictly harmonic

freq.      33.83  E(vib)   ...       0.55
freq.      34.66  E(vib)   ...       0.54
freq.      50.77  E(vib)   ...       0.52
freq.      64.51  E(vib)   ...       0.51
freq.      91.86  E(vib)   ...       0.47
freq.      98.89  E(vib)   ...       0.46
freq.     114.12  E(vib)   ...       0.44
freq.     129.66  E(vib)   ...       0.43
freq.     203.11  E(vib)   ...       0.35
freq.     216.02  E(vib)   ...       0.34
freq.     229.45  E(vib)   ...       0.32
freq.     233.29  E(vib)   ...       0.32
freq.     244.27  E(vib)   ...       0.31
freq.     296.51  E(vib)   ...       0.27
freq.     365.18  E(vib)   ...       0.22
freq.     377.71  E(vib)   ...       0.21
freq.     409.81  E(vib)   ...       0.19
freq.     420.80  E(vib)   ...       0.18
freq.     464.05  E(vib)   ...       0.16
freq.     488.86  E(vib)   ...       0.15
freq.     509.70  E(vib)   ...       0.14
freq.     519.34  E(vib)   ...       0.13
freq.     524.94  E(vib)   ...       0.13
freq.     561.28  E(vib)   ...       0.11
freq.     582.04  E(vib)   ...       0.11
freq.     607.19  E(vib)   ...       0.10
freq.     623.15  E(vib)   ...       0.09
freq.     659.17  E(vib)   ...       0.08
freq.     701.57  E(vib)   ...       0.07
freq.     729.84  E(vib)   ...       0.06
freq.     736.19  E(vib)   ...       0.06
freq.     740.27  E(vib)   ...       0.06
freq.     773.26  E(vib)   ...       0.05
freq.     800.89  E(vib)   ...       0.05
freq.     823.83  E(vib)   ...       0.05
freq.     833.36  E(vib)   ...       0.04
freq.     853.96  E(vib)   ...       0.04
freq.     868.33  E(vib)   ...       0.04
freq.     870.50  E(vib)   ...       0.04
freq.     922.28  E(vib)   ...       0.03
freq.     965.47  E(vib)   ...       0.03
freq.     979.55  E(vib)   ...       0.03
freq.     987.97  E(vib)   ...       0.02
freq.     994.21  E(vib)   ...       0.02
freq.    1000.85  E(vib)   ...       0.02
freq.    1029.01  E(vib)   ...       0.02
freq.    1046.48  E(vib)   ...       0.02
freq.    1082.42  E(vib)   ...       0.02
freq.    1084.40  E(vib)   ...       0.02
freq.    1107.96  E(vib)   ...       0.02
freq.    1133.37  E(vib)   ...       0.01
freq.    1148.07  E(vib)   ...       0.01
freq.    1160.12  E(vib)   ...       0.01
freq.    1172.44  E(vib)   ...       0.01
freq.    1181.47  E(vib)   ...       0.01
freq.    1188.12  E(vib)   ...       0.01
freq.    1220.83  E(vib)   ...       0.01
freq.    1225.81  E(vib)   ...       0.01
freq.    1258.10  E(vib)   ...       0.01
freq.    1272.16  E(vib)   ...       0.01
freq.    1286.25  E(vib)   ...       0.01
freq.    1324.31  E(vib)   ...       0.01
freq.    1342.59  E(vib)   ...       0.01
freq.    1355.88  E(vib)   ...       0.01
freq.    1411.95  E(vib)   ...       0.00
freq.    1420.16  E(vib)   ...       0.00
freq.    1446.25  E(vib)   ...       0.00
freq.    1452.69  E(vib)   ...       0.00
freq.    1457.12  E(vib)   ...       0.00
freq.    1470.84  E(vib)   ...       0.00
freq.    1477.76  E(vib)   ...       0.00
freq.    1493.08  E(vib)   ...       0.00
freq.    1501.06  E(vib)   ...       0.00
freq.    1504.60  E(vib)   ...       0.00
freq.    1531.49  E(vib)   ...       0.00
freq.    1536.22  E(vib)   ...       0.00
freq.    1548.43  E(vib)   ...       0.00
freq.    1601.08  E(vib)   ...       0.00
freq.    1633.14  E(vib)   ...       0.00
freq.    1647.04  E(vib)   ...       0.00
freq.    1661.62  E(vib)   ...       0.00
freq.    1743.17  E(vib)   ...       0.00
freq.    3023.29  E(vib)   ...       0.00
freq.    3028.19  E(vib)   ...       0.00
freq.    3078.82  E(vib)   ...       0.00
freq.    3086.48  E(vib)   ...       0.00
freq.    3150.63  E(vib)   ...       0.00
freq.    3169.79  E(vib)   ...       0.00
freq.    3173.72  E(vib)   ...       0.00
freq.    3176.35  E(vib)   ...       0.00
freq.    3176.92  E(vib)   ...       0.00
freq.    3183.07  E(vib)   ...       0.00
freq.    3186.55  E(vib)   ...       0.00
freq.    3189.51  E(vib)   ...       0.00
freq.    3201.04  E(vib)   ...       0.00
freq.    3201.31  E(vib)   ...       0.00

------------
INNER ENERGY
------------

The inner energy is: U= E(el) + E(ZPE) + E(vib) + E(rot) + E(trans)
    E(el)   - is the total energy from the electronic structure calculation
              = E(kin-el) + E(nuc-el) + E(el-el) + E(nuc-nuc)
    E(ZPE)  - the the zero temperature vibrational energy from the frequency calculation
    E(vib)  - the the finite temperature correction to E(ZPE) due to population
              of excited vibrational states
    E(rot)  - is the rotational thermal energy
    E(trans)- is the translational thermal energy

Summary of contributions to the inner energy U:
Electronic energy                ...   -878.32945904 Eh
Zero point energy                ...      0.26864072 Eh     168.57 kcal/mol
Thermal vibrational correction   ...      0.01404065 Eh       8.81 kcal/mol
Thermal rotational correction    ...      0.00141627 Eh       0.89 kcal/mol
Thermal translational correction ...      0.00141627 Eh       0.89 kcal/mol
-----------------------------------------------------------------------
Total thermal energy                   -878.04394513 Eh

Summary of corrections to the electronic energy:
(perhaps to be used in another calculation)
Total thermal correction                  0.01687319 Eh      10.59 kcal/mol
Non-thermal (ZPE) correction              0.26864072 Eh     168.57 kcal/mol
-----------------------------------------------------------------------
Total correction                          0.28551392 Eh     179.16 kcal/mol

--------
ENTHALPY
--------

The enthalpy is H = U + kB*T
                kB is Boltzmann's constant
Total thermal energy              ...   -878.04394513 Eh
Thermal Enthalpy correction       ...      0.00094421 Eh       0.59 kcal/mol
-----------------------------------------------------------------------
Total Enthalpy                    ...   -878.04300092 Eh

Note: Only C1 symmetry has been detected, increase convergence thresholds
      if your molecule has a higher symmetry. Symmetry factor of 1.0 is

Rotational constants in cm-1:     0.016153     0.010969     0.007123

                             ****ORCA TERMINATED NORMALLY****
TOTAL RUN TIME: 0 days 2 hours 29 minutes 48 seconds 615 msec
